ITEM: TIMESTEP
82000
ITEM: NUMBER OF ATOMS
108
ITEM: BOX BOUNDS pp pp pp
0.0000000000000000e+00 1.3349999400000000e+01
0.0000000000000000e+00 1.3349999400000000e+01
0.0000000000000000e+00 1.3349999400000000e+01
ITEM: ATOMS id element xu yu zu
1 Ar -0.185171 -0.173304 0.156396
2 Ar 0.115462 0.222402 4.36766
3 Ar -0.0963854 0.0798502 8.69751
4 Ar -0.0422052 4.06721 0.0199174
5 Ar -0.139934 4.51322 4.36149
6 Ar -0.137807 4.36282 8.88319
7 Ar -0.0384583 8.89796 -0.145963
8 Ar -0.0289137 8.9621 4.50748
9 Ar 0.0187693 8.80209 8.87179
10 Ar 4.52561 -0.119241 -0.169467
11 Ar 4.45963 -0.0097979 4.53798
12 Ar 4.57085 -0.00134765 8.91129
13 Ar 4.38624 4.61721 -0.0467248
14 Ar 4.49847 4.47288 4.47046
15 Ar 4.44825 4.44805 8.85402
16 Ar 4.30046 8.84503 -0.135655
17 Ar 4.35085 9.03716 4.51404
18 Ar 4.42697 8.86737 8.93116
19 Ar 8.89807 -0.0777122 -0.0227514
20 Ar 8.95558 0.0646595 4.57671
21 Ar 8.88091 0.106502 8.6489
22 Ar 8.92089 4.38538 0.0396396
23 Ar 8.7718 4.42034 4.24339
24 Ar 8.8369 4.56222 8.90607
25 Ar 8.80013 8.81144 -0.102705
26 Ar 8.87608 8.99019 4.44231
27 Ar 8.9915 9.05039 8.97151
28 Ar 0.264348 2.21471 2.34763
29 Ar -0.0831254 2.33146 6.50941
30 Ar 0.0544088 2.13534 11.19
31 Ar -0.111492 6.81411 2.45296
32 Ar 0.00923742 6.67497 6.73942
33 Ar -0.100264 6.36546 11.061
34 Ar 0.0133505 11.1622 2.31444
35 Ar 0.112572 11.2812 6.70528
36 Ar 0.0742514 11.0836 11.0111
37 Ar 4.44587 2.14411 2.14229
38 Ar 4.5532 2.36133 6.78605
39 Ar 4.65176 2.07432 11.2433
40 Ar 4.55667 6.77125 2.16748
41 Ar 4.45786 6.72492 6.70625
42 Ar 4.42224 6.5566 10.9956
43 Ar 4.43216 11.0698 2.12903
44 Ar 4.44583 11.0699 6.65221
45 Ar 4.40785 11.0972 11.0733
46 Ar 8.83276 2.24342 2.34259
47 Ar 8.68157 2.33733 6.6129
48 Ar 9.02995 2.19701 11.2689
49 Ar 9.09261 6.66204 2.39034
50 Ar 8.98731 6.8516 6.68822
51 Ar 8.88973 6.66721 11.1942
52 Ar 8.79174 11.1716 2.15011
53 Ar 9.09686 11.243 6.80581
54 Ar 9.05021 11.0404 11.0206
55 Ar 2.15615 -0.212821 2.20163
56 Ar 2.36546 0.0942406 6.72084
57 Ar 2.10022 0.0415584 11.0479
58 Ar 2.39864 4.33426 2.29828
59 Ar 2.15329 4.3704 6.65761
60 Ar 2.22839 4.32694 11.1321
61 Ar 2.20385 8.9898 2.0612
62 Ar 2.26979 9.07162 6.76011
63 Ar 2.17189 8.63671 11.0505
64 Ar 6.66558 -0.0234272 2.45116
65 Ar 6.5563 -0.035076 6.66826
66 Ar 6.77339 -0.0232684 11.0015
67 Ar 6.61541 4.31729 2.07974
68 Ar 6.77993 4.67587 6.64913
69 Ar 6.71658 4.2597 11.3034
70 Ar 6.78753 8.86608 2.16915
71 Ar 6.887 8.92862 6.72467
72 Ar 6.7072 8.93709 11.0449
73 Ar 11.0909 0.0747641 2.39098
74 Ar 11.2351 0.0100853 6.50614
75 Ar 11.2681 0.0822689 11.1702
76 Ar 11.0193 4.45039 2.32301
77 Ar 11.0099 4.34861 6.62917
78 Ar 10.9995 4.42352 11.1415
79 Ar 11.0886 9.06448 2.18854
80 Ar 11.252 9.0721 6.78933
81 Ar 11.2055 9.12008 11.2058
82 Ar 2.15337 1.9987 0.00400391
83 Ar 2.29907 2.34458 4.48917
84 Ar 2.20862 2.35581 8.96119
85 Ar 1.95802 6.51375 -0.021694
86 Ar 2.24984 6.57221 4.49902
87 Ar 2.23802 6.45102 8.85014
88 Ar 2.24162 11.1562 -0.0798541
89 Ar 2.13577 11.1796 4.30827
90 Ar 2.19376 11.1358 8.95987
91 Ar 6.59094 2.10867 0.133488
92 Ar 6.68617 2.11507 4.41888
93 Ar 6.77542 2.2083 9.0213
94 Ar 6.76314 6.61037 -0.108232
95 Ar 6.61814 6.84782 4.42953
96 Ar 6.64674 6.69218 9.01826
97 Ar 6.67905 11.1549 -0.025522
98 Ar 6.55966 11.0462 4.43329
99 Ar 6.69955 11.1352 8.89259
100 Ar 10.9716 2.20308 0.089418
101 Ar 11.1106 2.23472 4.3549
102 Ar 10.8762 2.2872 8.89201
103 Ar 11.1329 6.58023 0.0525678
104 Ar 11.1249 6.77016 4.50865
105 Ar 11.1356 6.71078 8.89698
106 Ar 11.0712 11.0812 0.0953978
107 Ar 11.08 11.1659 4.46305
108 Ar 11.4205 11.3368 8.85686
ITEM: TIMESTEP
82010
ITEM: NUMBER OF ATOMS
108
ITEM: BOX BOUNDS pp pp pp
0.0000000000000000e+00 1.3349999400000000e+01
0.0000000000000000e+00 1.3349999400000000e+01
0.0000000000000000e+00 1.3349999400000000e+01
ITEM: ATOMS id element xu yu zu
1 Ar -0.18361 -0.167199 0.150233
2 Ar 0.121999 0.212725 4.35562
3 Ar -0.113259 0.0916866 8.68192
4 Ar -0.0551409 4.05949 0.0138714
5 Ar -0.142141 4.5045 4.37026
6 Ar -0.123302 4.3702 8.86601
7 Ar -0.0567895 8.92141 -0.153434
8 Ar -0.0025445 8.95699 4.50712
9 Ar 0.0299096 8.82377 8.8569
10 Ar 4.53332 -0.118796 -0.146149
11 Ar 4.43693 0.0105059 4.53565
12 Ar 4.59232 0.00532195 8.89408
13 Ar 4.36026 4.61444 -0.0481978
14 Ar 4.49674 4.49059 4.48383
15 Ar 4.43523 4.46328 8.83188
16 Ar 4.30223 8.84542 -0.156143
17 Ar 4.35779 9.06076 4.50108
18 Ar 4.41562 8.85893 8.93811
19 Ar 8.89512 -0.0747848 -0.0242668
20 Ar 8.97136 0.053229 4.5696
21 Ar 8.88494 0.10075 8.64987
22 Ar 8.92992 4.3732 0.041113
23 Ar 8.76938 4.41093 4.25103
24 Ar 8.84747 4.5521 8.89393
25 Ar 8.80323 8.82171 -0.107135
26 Ar 8.88924 8.99612 4.42585
27 Ar 8.99109 9.02756 8.96644
28 Ar 0.246683 2.20367 2.34275
29 Ar -0.0947631 2.32459 6.5104
30 Ar 0.0499051 2.166 11.1809
31 Ar -0.113439 6.79428 2.46951
32 Ar 0.00085184 6.6627 6.74336
33 Ar -0.102081 6.36187 11.0575
34 Ar 0.013824 11.1578 2.32152
35 Ar 0.103859 11.2915 6.68066
36 Ar 0.079528 11.0714 11.0241
37 Ar 4.47211 2.14373 2.13481
38 Ar 4.56549 2.36284 6.7701
39 Ar 4.6378 2.08631 11.234
40 Ar 4.54813 6.74878 2.17095
41 Ar 4.44085 6.72053 6.71703
42 Ar 4.42257 6.544 11.002
43 Ar 4.45369 11.0707 2.14594
44 Ar 4.45253 11.0798 6.64
45 Ar 4.42827 11.0982 11.0773
46 Ar 8.82188 2.23814 2.325
47 Ar 8.68526 2.34568 6.61953
48 Ar 9.03487 2.19314 11.2889
49 Ar 9.07566 6.68124 2.39297
50 Ar 8.98862 6.82904 6.68746
51 Ar 8.9129 6.65471 11.2029
52 Ar 8.80153 11.1743 2.16732
53 Ar 9.10629 11.2607 6.81483
54 Ar 9.04135 11.0383 11.0166
55 Ar 2.16349 -0.221879 2.19793
56 Ar 2.35446 0.0847371 6.69927
57 Ar 2.10396 0.0261978 11.0232
58 Ar 2.41703 4.33274 2.30852
59 Ar 2.17361 4.38157 6.65845
60 Ar 2.23454 4.31724 11.1209
61 Ar 2.20673 9.00471 2.0466
62 Ar 2.25237 9.05903 6.77746
63 Ar 2.16158 8.65173 11.0459
64 Ar 6.65994 -0.017306 2.45972
65 Ar 6.53841 -0.0562248 6.68547
66 Ar 6.80715 -0.0167708 10.996
67 Ar 6.62628 4.3185 2.10493
68 Ar 6.78264 4.66429 6.65198
69 Ar 6.7155 4.25414 11.3161
70 Ar 6.79216 8.87267 2.16351
71 Ar 6.88035 8.90615 6.74228
72 Ar 6.71878 8.92236 11.0399
73 Ar 11.0864 0.0843569 2.40882
74 Ar 11.2446 0.0237174 6.53374
75 Ar 11.2645 0.0760981 11.1651
76 Ar 11.0394 4.45244 2.32565
77 Ar 10.9986 4.35331 6.64217
78 Ar 11.0222 4.43035 11.138
79 Ar 11.087 9.06303 2.20404
80 Ar 11.2685 9.07624 6.78225
81 Ar 11.1887 9.11565 11.198
82 Ar 2.16231 1.99847 0.0100679
83 Ar 2.29638 2.33109 4.49659
84 Ar 2.21923 2.34834 8.96096
85 Ar 1.95225 6.51578 -0.00274876
86 Ar 2.26004 6.58101 4.49854
87 Ar 2.22845 6.44758 8.86755
88 Ar 2.21814 11.1628 -0.0614261
89 Ar 2.11112 11.1944 4.29686
90 Ar 2.20212 11.1222 8.97599
91 Ar 6.57821 2.11124 0.124179
92 Ar 6.68504 2.10638 4.39711
93 Ar 6.74234 2.2036 9.01962
94 Ar 6.76319 6.60887 -0.112854
95 Ar 6.62718 6.85655 4.42783
96 Ar 6.65874 6.67877 9.01748
97 Ar 6.68649 11.1707 -0.021293
98 Ar 6.55021 11.0492 4.42637
99 Ar 6.69293 11.1306 8.88045
100 Ar 10.9367 2.20851 0.120776
101 Ar 11.1234 2.23305 4.34661
102 Ar 10.8752 2.28509 8.89085
103 Ar 11.135 6.58845 0.0367262
104 Ar 11.1076 6.77685 4.53384
105 Ar 11.1357 6.71804 8.89826
106 Ar 11.0593 11.0822 0.0863761
107 Ar 11.0885 11.1838 4.4615
108 Ar 11.4042 11.3279 8.85041
ITEM: TIMESTEP
82020
ITEM: NUMBER OF ATOMS
108
ITEM: BOX BOUNDS pp pp pp
0.0000000000000000e+00 1.3349999400000000e+01
0.0000000000000000e+00 1.3349999400000000e+01
0.0000000000000000e+00 1.3349999400000000e+01
ITEM: ATOMS id element xu yu zu
1 Ar -0.180495 -0.158559 0.142539
2 Ar 0.127732 0.199259 4.34663
3 Ar -0.126073 0.107915 8.66945
4 Ar -0.0681951 4.05664 0.00965435
5 Ar -0.142135 4.49565 4.3805
6 Ar -0.108832 4.37637 8.84822
7 Ar -0.0739851 8.94389 -0.158186
8 Ar 0.0248717 8.95198 4.5075
9 Ar 0.0414507 8.84588 8.84369
10 Ar 4.5396 -0.118096 -0.120554
11 Ar 4.41255 0.0309371 4.53149
12 Ar 4.61042 0.0121853 8.8777
13 Ar 4.33447 4.60908 -0.0490234
14 Ar 4.49706 4.50813 4.49718
15 Ar 4.42461 4.47735 8.81118
16 Ar 4.30636 8.84493 -0.17626
17 Ar 4.36419 9.08093 4.48649
18 Ar 4.40482 8.85095 8.94449
19 Ar 8.89199 -0.0712698 -0.0251495
20 Ar 8.9848 0.040298 4.56231
21 Ar 8.88997 0.0942685 8.65454
22 Ar 8.93801 4.36276 0.0438878
23 Ar 8.76694 4.40325 4.26316
24 Ar 8.85787 4.5416 8.88271
25 Ar 8.80856 8.83338 -0.109738
26 Ar 8.90348 9.00286 4.41041
27 Ar 8.99152 9.00206 8.95999
28 Ar 0.225808 2.19367 2.33523
29 Ar -0.105123 2.31717 6.5137
30 Ar 0.0428659 2.19665 11.1697
31 Ar -0.113614 6.77362 2.48158
32 Ar -0.00756599 6.6499 6.74556
33 Ar -0.102915 6.3616 11.0554
34 Ar 0.0110265 11.1515 2.32699
35 Ar 0.096032 11.3001 6.6535
36 Ar 0.0846696 11.0608 11.039
37 Ar 4.49629 2.14236 2.12876
38 Ar 4.57798 2.36309 6.75273
39 Ar 4.61964 2.10024 11.2229
40 Ar 4.53785 6.72644 2.17475
41 Ar 4.42402 6.71684 6.72707
42 Ar 4.42333 6.5325 11.0107
43 Ar 4.47618 11.0721 2.16288
44 Ar 4.45887 11.0904 6.62982
45 Ar 4.44892 11.0991 11.0811
46 Ar 8.81149 2.23037 2.30479
47 Ar 8.69061 2.35325 6.62601
48 Ar 9.03654 2.18828 11.3063
49 Ar 9.0555 6.70188 2.39224
50 Ar 8.99007 6.80504 6.68663
51 Ar 8.93732 6.64223 11.2092
52 Ar 8.81239 11.1772 2.18623
53 Ar 9.11298 11.2758 6.82146
54 Ar 9.03078 11.041 11.0139
55 Ar 2.17447 -0.226403 2.19272
56 Ar 2.34229 0.0754213 6.67842
57 Ar 2.10936 0.0102191 10.9987
58 Ar 2.43319 4.33408 2.31674
59 Ar 2.19405 4.39366 6.65903
60 Ar 2.24096 4.30795 11.1111
61 Ar 2.20895 9.01673 2.03397
62 Ar 2.2337 9.04368 6.79312
63 Ar 2.15084 8.66796 11.0417
64 Ar 6.65437 -0.0127622 2.46439
65 Ar 6.52301 -0.0770385 6.70145
66 Ar 6.84213 -0.0117308 10.9926
67 Ar 6.63635 4.32309 2.13144
68 Ar 6.78394 4.65196 6.65448
69 Ar 6.71438 4.25051 11.3264
70 Ar 6.79487 8.87941 2.15706
71 Ar 6.87082 8.88463 6.76006
72 Ar 6.72893 8.90776 11.0363
73 Ar 11.0818 0.0921827 2.42361
74 Ar 11.2528 0.0396734 6.56161
75 Ar 11.2591 0.0682673 11.1591
76 Ar 11.0618 4.45412 2.32598
77 Ar 10.987 4.36026 6.65443
78 Ar 11.0459 4.43625 11.1345
79 Ar 11.0856 9.05927 2.22003
80 Ar 11.2834 9.07911 6.77361
81 Ar 11.1715 9.10641 11.1878
82 Ar 2.1738 1.99883 0.0161016
83 Ar 2.2952 2.3158 4.50459
84 Ar 2.23026 2.33794 8.95899
85 Ar 1.94698 6.51841 0.0177307
86 Ar 2.26997 6.59223 4.49727
87 Ar 2.21739 6.44647 8.885
88 Ar 2.19387 11.1691 -0.0446432
89 Ar 2.08901 11.2076 4.29003
90 Ar 2.21168 11.1095 8.99089
91 Ar 6.56855 2.11291 0.113535
92 Ar 6.68156 2.10072 4.37752
93 Ar 6.70912 2.20122 9.01629
94 Ar 6.76128 6.60813 -0.115435
95 Ar 6.63666 6.86376 4.42633
96 Ar 6.67192 6.66522 9.01553
97 Ar 6.6939 11.1849 -0.0180104
98 Ar 6.54361 11.053 4.42049
99 Ar 6.6864 11.1255 8.86803
100 Ar 10.9055 2.21251 0.153615
101 Ar 11.1354 2.23281 4.34029
102 Ar 10.8772 2.28214 8.88925
103 Ar 11.1382 6.59779 0.0210733
104 Ar 11.09 6.78348 4.56082
105 Ar 11.1347 6.72524 8.89996
106 Ar 11.0473 11.0847 0.076479
107 Ar 11.0981 11.2008 4.45959
108 Ar 11.3834 11.3161 8.84555
ITEM: TIMESTEP
82030
ITEM: NUMBER OF ATOMS
108
ITEM: BOX BOUNDS pp pp pp
0.0000000000000000e+00 1.3349999400000000e+01
0.0000000000000000e+00 1.3349999400000000e+01
0.0000000000000000e+00 1.3349999400000000e+01
ITEM: ATOMS id element xu yu zu
1 Ar -0.176111 -0.147431 0.133463
2 Ar 0.132389 0.182419 4.34078
3 Ar -0.134546 0.127779 8.66066
4 Ar -0.0811163 4.05867 0.00747559
5 Ar -0.139757 4.48675 4.39234
6 Ar -0.0945578 4.38117 8.82997
7 Ar -0.08993 8.96494 -0.159982
8 Ar 0.0529672 8.94685 4.50853
9 Ar 0.0529238 8.86809 8.83239
10 Ar 4.54429 -0.117141 -0.0933426
11 Ar 4.38706 0.0511611 4.52547
12 Ar 4.62449 0.0190071 8.86274
13 Ar 4.30941 4.60112 -0.0490948
14 Ar 4.4995 4.5252 4.51038
15 Ar 4.41659 4.49001 8.79219
16 Ar 4.31276 8.84363 -0.195638
17 Ar 4.36966 9.09722 4.47066
18 Ar 4.39484 8.84341 8.95032
19 Ar 8.88874 -0.0673932 -0.0251379
20 Ar 8.99553 0.0263549 4.55526
21 Ar 8.89571 0.0875491 8.66295
22 Ar 8.9449 4.35467 0.0480036
23 Ar 8.7649 4.39733 4.27924
24 Ar 8.86789 4.53074 8.87295
25 Ar 8.81595 8.84628 -0.110486
26 Ar 8.91836 9.01051 4.39673
27 Ar 8.99272 8.97438 8.9522
28 Ar 0.202301 2.18494 2.32516
29 Ar -0.113839 2.3096 6.51917
30 Ar 0.0334918 2.22644 11.1562
31 Ar -0.11218 6.75247 2.48922
32 Ar -0.0158556 6.63676 6.746
33 Ar -0.102429 6.36482 11.0549
34 Ar 0.00467114 11.1434 2.33038
35 Ar 0.0891376 11.3072 6.62452
36 Ar 0.089199 11.0521 11.0553
37 Ar 4.51785 2.1403 2.12437
38 Ar 4.59043 2.36204 6.73407
39 Ar 4.59755 2.11549 11.2103
40 Ar 4.52616 6.70478 2.17876
41 Ar 4.40772 6.71417 6.73614
42 Ar 4.42448 6.52226 11.0213
43 Ar 4.49913 11.0737 2.17937
44 Ar 4.46425 11.1014 6.62177
45 Ar 4.4697 11.1001 11.0847
46 Ar 8.80163 2.22034 2.2827
47 Ar 8.6973 2.35943 6.63214
48 Ar 9.03513 2.18279 11.3206
49 Ar 9.03279 6.72315 2.38816
50 Ar 8.99138 6.78006 6.68575
51 Ar 8.96251 6.62982 11.2133
52 Ar 8.82412 11.1803 2.20647
53 Ar 9.11682 11.2877 6.82538
54 Ar 9.01854 11.0483 11.0123
55 Ar 2.18892 -0.22614 2.18598
56 Ar 2.32907 0.066325 6.65887
57 Ar 2.11621 -0.00584243 10.9747
58 Ar 2.44671 4.33781 2.32315
59 Ar 2.21416 4.40629 6.65922
60 Ar 2.24748 4.29931 11.1028
61 Ar 2.21063 9.02564 2.02341
62 Ar 2.21446 9.02597 6.80665
63 Ar 2.13981 8.68502 11.0382
64 Ar 6.64909 -0.0101636 2.46501
65 Ar 6.51081 -0.0969702 6.71532
66 Ar 6.87748 -0.008063 10.991
67 Ar 6.64542 4.33108 2.15864
68 Ar 6.78363 4.63911 6.65655
69 Ar 6.71328 4.24884 11.3341
70 Ar 6.79547 8.88619 2.14976
71 Ar 6.85867 8.86425 6.77756
72 Ar 6.7376 8.89337 11.0339
73 Ar 11.0775 0.0979503 2.43475
74 Ar 11.2591 0.0577634 6.5889
75 Ar 11.2521 0.0590362 11.1523
76 Ar 11.086 4.45588 2.32415
77 Ar 10.9757 4.36922 6.66572
78 Ar 11.0699 4.44076 11.1307
79 Ar 11.0847 9.0533 2.23617
80 Ar 11.2965 9.08068 6.76335
81 Ar 11.1543 9.09258 11.175
82 Ar 2.18751 1.99973 0.0218652
83 Ar 2.29534 2.29928 4.51284
84 Ar 2.24165 2.32462 8.95502
85 Ar 1.94199 6.52175 0.03937
86 Ar 2.27942 6.60584 4.49522
87 Ar 2.20487 6.44788 8.90242
88 Ar 2.1695 11.175 -0.0299029
89 Ar 2.07018 11.2189 4.28804
90 Ar 2.22231 11.098 9.00407
91 Ar 6.56211 2.11384 0.101572
92 Ar 6.67605 2.0981 4.36087
93 Ar 6.6765 2.20138 9.01133
94 Ar 6.75752 6.60807 -0.115907
95 Ar 6.64635 6.86949 4.42519
96 Ar 6.68606 6.6515 9.01266
97 Ar 6.70134 11.1975 -0.0156585
98 Ar 6.54027 11.0575 4.41598
99 Ar 6.68013 11.1194 8.85568
100 Ar 10.8788 2.21477 0.187393
101 Ar 11.1463 2.23412 4.33618
102 Ar 10.8821 2.27846 8.88746
103 Ar 11.1427 6.60817 0.00611911
104 Ar 11.0728 6.78986 4.58889
105 Ar 11.1329 6.73236 8.90202
106 Ar 11.0353 11.0888 0.0659911
107 Ar 11.109 11.2168 4.45762
108 Ar 11.3588 11.3018 8.84252
ITEM: TIMESTEP
82040
ITEM: NUMBER OF ATOMS
108
ITEM: BOX BOUNDS pp pp pp
0.0000000000000000e+00 1.3349999400000000e+01
0.0000000000000000e+00 1.3349999400000000e+01
0.0000000000000000e+00 1.3349999400000000e+01
ITEM: ATOMS id element xu yu zu
1 Ar -0.170723 -0.133888 0.123143
2 Ar 0.135717 0.162783 4.33797
3 Ar -0.138498 0.150336 8.65605
4 Ar -0.0936288 4.06544 0.00744541
5 Ar -0.134882 4.47791 4.40583
6 Ar -0.0806161 4.38453 8.81146
7 Ar -0.10458 8.98412 -0.158649
8 Ar 0.0813562 8.94139 4.51005
9 Ar 0.063803 8.89015 8.82319
10 Ar 4.54728 -0.115951 -0.0651885
11 Ar 4.36111 0.0707873 4.51762
12 Ar 4.63396 0.0255458 8.84977
13 Ar 4.28559 4.59055 -0.048339
14 Ar 4.50403 4.54154 4.5233
15 Ar 4.41129 4.50106 8.77517
16 Ar 4.32127 8.8416 -0.213919
17 Ar 4.37388 9.10926 4.45399
18 Ar 4.38588 8.83627 8.95562
19 Ar 8.88546 -0.0633782 -0.023977
20 Ar 9.00324 0.0119085 4.54884
21 Ar 8.90193 0.0810211 8.67503
22 Ar 8.95035 4.34949 0.0534361
23 Ar 8.76368 4.39312 4.29863
24 Ar 8.87733 4.51949 8.86515
25 Ar 8.82521 8.86015 -0.10941
26 Ar 8.93341 9.01911 4.3855
27 Ar 8.99457 8.94508 8.94316
28 Ar 0.176764 2.17758 2.31274
29 Ar -0.120573 2.30228 6.52656
30 Ar 0.0220361 2.2546 11.1406
31 Ar -0.109322 6.73115 2.49257
32 Ar -0.0238677 6.62351 6.74469
33 Ar -0.100336 6.37162 11.0557
34 Ar -0.00530032 11.134 2.33132
35 Ar 0.0831055 11.3128 6.59457
36 Ar 0.092644 11.0455 11.0725
37 Ar 4.53632 2.13789 2.12181
38 Ar 4.60263 2.35967 6.71424
39 Ar 4.57194 2.13146 11.1966
40 Ar 4.51337 6.68428 2.18287
41 Ar 4.39224 6.71284 6.74409
42 Ar 4.42601 6.51342 11.0335
43 Ar 4.52199 11.0757 2.19493
44 Ar 4.46808 11.112 6.61587
45 Ar 4.49049 11.1016 11.0882
46 Ar 8.79218 2.20838 2.2596
47 Ar 8.70507 2.36365 6.63773
48 Ar 9.03096 2.17705 11.3314
49 Ar 9.00817 6.74427 2.38084
50 Ar 8.99221 6.75461 6.68488
51 Ar 8.98793 6.61754 11.2151
52 Ar 8.83657 11.1839 2.22762
53 Ar 9.1177 11.2958 6.82633
54 Ar 9.00478 11.0595 11.0114
55 Ar 2.20652 -0.221048 2.17784
56 Ar 2.31491 0.0574646 6.64122
57 Ar 2.1243 -0.0214847 10.9518
58 Ar 2.4572 4.34337 2.32803
59 Ar 2.2335 4.41912 6.65884
60 Ar 2.25387 4.29152 11.0961
61 Ar 2.21192 9.03134 2.015
62 Ar 2.19532 9.0063 6.81768
63 Ar 2.1287 8.70252 11.0358
64 Ar 6.6443 -0.00978315 2.46154
65 Ar 6.50245 -0.115486 6.72626
66 Ar 6.9123 -0.00563235 10.9914
67 Ar 6.65335 4.3424 2.18591
68 Ar 6.78159 4.62595 6.65816
69 Ar 6.71225 4.24916 11.339
70 Ar 6.7938 8.89292 2.14162
71 Ar 6.84413 8.84513 6.79434
72 Ar 6.74481 8.87929 11.0326
73 Ar 11.0736 0.101435 2.4418
74 Ar 11.2629 0.0776674 6.61484
75 Ar 11.2438 0.0486648 11.1448
76 Ar 11.111 4.45809 2.32041
77 Ar 10.965 4.37992 6.6758
78 Ar 11.0937 4.44347 11.1268
79 Ar 11.0847 9.0452 2.25215
80 Ar 11.3076 9.08096 6.7515
81 Ar 11.1374 9.07451 11.1599
82 Ar 2.20302 2.0012 0.0271241
83 Ar 2.29651 2.28215 4.52095
84 Ar 2.25333 2.30854 8.94881
85 Ar 1.93712 6.52589 0.0617779
86 Ar 2.28824 6.62178 4.4924
87 Ar 2.19097 6.4519 8.91973
88 Ar 2.14569 11.1804 -0.017518
89 Ar 2.05529 11.2279 4.29085
90 Ar 2.2339 11.0879 9.01506
91 Ar 6.55894 2.11424 0.0883088
92 Ar 6.66888 2.09846 4.34776
93 Ar 6.64516 2.20424 9.00482
94 Ar 6.75209 6.60863 -0.114267
95 Ar 6.65604 6.87381 4.42452
96 Ar 6.7009 6.63759 9.0091
97 Ar 6.70885 11.2082 -0.0141979
98 Ar 6.54053 11.0628 4.41313
99 Ar 6.6743 11.1123 8.84374
100 Ar 10.8575 2.21508 0.221433
101 Ar 11.1557 2.23701 4.33446
102 Ar 10.8897 2.27421 8.88576
103 Ar 11.1483 6.61953 -0.00765833
104 Ar 11.0562 6.79581 4.61719
105 Ar 11.1305 6.73933 8.90435
106 Ar 11.0234 11.0945 0.0551593
107 Ar 11.1211 11.2316 4.45587
108 Ar 11.3316 11.2853 8.84149
ITEM: TIMESTEP
82050
ITEM: NUMBER OF ATOMS
108
ITEM: BOX BOUNDS pp pp pp
0.0000000000000000e+00 1.3349999400000000e+01
0.0000000000000000e+00 1.3349999400000000e+01
0.0000000000000000e+00 1.3349999400000000e+01
ITEM: ATOMS id element xu yu zu
1 Ar -0.164568 -0.118028 0.111697
2 Ar 0.137484 0.141065 4.33794
3 Ar -0.137857 0.174539 8.65603
4 Ar -0.105435 4.07677 0.00955706
5 Ar -0.127429 4.46922 4.42096
6 Ar -0.067121 4.3864 8.79293
7 Ar -0.117957 9.00102 -0.154085
8 Ar 0.109635 8.93538 4.51185
9 Ar 0.0735278 8.91181 8.81622
10 Ar 4.54854 -0.114572 -0.0367625
11 Ar 4.33541 0.0893696 4.50801
12 Ar 4.63839 0.0315615 8.83926
13 Ar 4.26347 4.5774 -0.0467118
14 Ar 4.51053 4.55695 4.53575
15 Ar 4.40873 4.51036 8.76041
16 Ar 4.33166 8.83895 -0.230761
17 Ar 4.37668 9.11682 4.43692
18 Ar 4.37812 8.82949 8.96046
19 Ar 8.88228 -0.0594305 -0.0214353
20 Ar 9.00767 -0.00252922 4.54335
21 Ar 8.90841 0.0750245 8.69058
22 Ar 8.9542 4.34765 0.0601048
23 Ar 8.7637 4.39059 4.32062
24 Ar 8.88602 4.50783 8.85974
25 Ar 8.83614 8.87475 -0.106593
26 Ar 8.94817 9.02864 4.3773
27 Ar 8.99688 8.91477 8.933
28 Ar 0.149805 2.1716 2.29827
29 Ar -0.125027 2.2956 6.53558
30 Ar 0.00880119 2.28051 11.1231
31 Ar -0.105227 6.71001 2.49187
32 Ar -0.0314637 6.6104 6.74167
33 Ar -0.0964194 6.38205 11.058
34 Ar -0.0187082 11.1234 2.32954
35 Ar 0.0777661 11.3169 6.56458
36 Ar 0.0945588 11.0413 11.0898
37 Ar 4.55139 2.13553 2.12117
38 Ar 4.61431 2.35598 6.69342
39 Ar 4.54329 2.14761 11.182
40 Ar 4.49981 6.6654 2.18694
41 Ar 4.37788 6.71314 6.75078
42 Ar 4.42788 6.50605 11.047
43 Ar 4.5442 11.078 2.20911
44 Ar 4.46986 11.1219 6.61203
45 Ar 4.51118 11.1037 11.0918
46 Ar 8.7829 2.19484 2.23646
47 Ar 8.71368 2.36541 6.64267
48 Ar 9.02447 2.17149 11.3383
49 Ar 8.98232 6.7645 2.37041
50 Ar 8.99214 6.72918 6.68412
51 Ar 9.01297 6.60544 11.2149
52 Ar 8.84954 11.1878 2.24921
53 Ar 9.11558 11.3001 6.82412
54 Ar 8.9897 11.0742 11.0109
55 Ar 2.22682 -0.211294 2.16855
56 Ar 2.29997 0.0488467 6.62599
57 Ar 2.13342 -0.0362567 10.9304
58 Ar 2.46435 4.35023 2.33172
59 Ar 2.25169 4.43184 6.65778
60 Ar 2.25986 4.28478 11.091
61 Ar 2.21298 9.03383 2.0088
62 Ar 2.17694 8.98508 6.82592
63 Ar 2.11771 8.7201 11.0347
64 Ar 6.64017 -0.0117634 2.45406
65 Ar 6.49851 -0.132086 6.73361
66 Ar 6.94562 -0.00426184 10.9933
67 Ar 6.66005 4.3569 2.21272
68 Ar 6.77774 4.61268 6.65932
69 Ar 6.71132 4.25148 11.341
70 Ar 6.78975 8.89958 2.13269
71 Ar 6.82745 8.82736 6.80998
72 Ar 6.75062 8.86557 11.0323
73 Ar 11.0704 0.102488 2.44445
74 Ar 11.2635 0.098945 6.63875
75 Ar 11.2344 0.0374108 11.1367
76 Ar 11.1362 4.4611 2.31505
77 Ar 10.9554 4.39201 6.68451
78 Ar 11.1169 4.44406 11.1225
79 Ar 11.0857 9.03506 2.26764
80 Ar 11.3165 9.07999 6.73813
81 Ar 11.1211 9.05269 11.1426
82 Ar 2.21986 2.00329 0.0316584
83 Ar 2.29834 2.2651 4.52858
84 Ar 2.26522 2.28997 8.9402
85 Ar 1.93229 6.5309 0.08455
86 Ar 2.29627 6.63989 4.48883
87 Ar 2.17587 6.45857 8.93682
88 Ar 2.12305 11.1853 -0.00769891
89 Ar 2.04489 11.2344 4.29813
90 Ar 2.24635 11.0793 9.02344
91 Ar 6.55891 2.11433 0.0737773
92 Ar 6.66046 2.10164 4.33858
93 Ar 6.61572 2.20984 8.9969
94 Ar 6.7452 6.60974 -0.110561
95 Ar 6.66553 6.87684 4.42443
96 Ar 6.71616 6.62349 9.00511
97 Ar 6.71646 11.2169 -0.0135733
98 Ar 6.54461 11.0689 4.41226
99 Ar 6.66904 11.1041 8.83254
100 Ar 10.8423 2.21328 0.254929
101 Ar 11.1634 2.24146 4.33524
102 Ar 10.9001 2.2696 8.8844
103 Ar 11.155 6.63175 -0.0198272
104 Ar 11.0408 6.80114 4.64483
105 Ar 11.1279 6.74602 8.90684
106 Ar 11.0119 11.1017 0.0441879
107 Ar 11.1344 11.2448 4.45462
108 Ar 11.3025 11.2672 8.8425
ITEM: TIMESTEP
82060
ITEM: NUMBER OF ATOMS
108
ITEM: BOX BOUNDS pp pp pp
0.0000000000000000e+00 1.3349999400000000e+01
0.0000000000000000e+00 1.3349999400000000e+01
0.0000000000000000e+00 1.3349999400000000e+01
ITEM: ATOMS id element xu yu zu
1 Ar -0.157848 -0.0999719 0.0992198
2 Ar 0.137489 0.118078 4.34028
3 Ar -0.132669 0.199302 8.66086
4 Ar -0.116218 4.09237 0.0136784
5 Ar -0.117367 4.46076 4.43765
6 Ar -0.0541593 4.38682 8.77466
7 Ar -0.130134 9.01533 -0.146268
8 Ar 0.137383 8.92861 4.51369
9 Ar 0.0815372 8.9329 8.8116
10 Ar 4.54807 -0.113066 -0.00873137
11 Ar 4.31071 0.106411 4.49674
12 Ar 4.63757 0.0368234 8.83157
13 Ar 4.24348 4.56178 -0.0441918
14 Ar 4.51884 4.57124 4.54755
15 Ar 4.40886 4.51781 8.74816
16 Ar 4.34369 8.8358 -0.24585
17 Ar 4.37797 9.11977 4.41985
18 Ar 4.3717 8.82301 8.96491
19 Ar 8.87932 -0.0557254 -0.0173218
20 Ar 9.00866 -0.0164592 4.53904
21 Ar 8.91494 0.0697949 8.70928
22 Ar 8.95639 4.34945 0.0678872
23 Ar 8.7653 4.38966 4.34445
24 Ar 8.89381 4.49572 8.85711
25 Ar 8.84849 8.88981 -0.102163
26 Ar 8.96219 9.03901 4.37261
27 Ar 8.99941 8.88409 8.92185
28 Ar 0.122031 2.16692 2.28214
29 Ar -0.126946 2.28989 6.54589
30 Ar -0.00586205 2.30366 11.1041
31 Ar -0.100072 6.68935 2.48747
32 Ar -0.0385142 6.59768 6.73703
33 Ar -0.0905582 6.39603 11.0616
34 Ar -0.0351522 11.1122 2.32492
35 Ar 0.0728759 11.3195 6.53555
36 Ar 0.0945416 11.0397 11.1067
37 Ar 4.56288 2.13363 2.12246
38 Ar 4.62524 2.35097 6.67183
39 Ar 4.51221 2.16346 11.1669
40 Ar 4.48583 6.64854 2.19085
41 Ar 4.36487 6.71531 6.75614
42 Ar 4.43002 6.5002 11.0615
43 Ar 4.5652 11.0806 2.22152
44 Ar 4.46917 11.1304 6.61009
45 Ar 4.53168 11.1066 11.0954
46 Ar 8.77343 2.18012 2.21427
47 Ar 8.72291 2.36426 6.64688
48 Ar 9.01617 2.16655 11.3414
49 Ar 8.95587 6.78323 2.35709
50 Ar 8.99068 6.70425 6.68361
51 Ar 9.03705 6.59358 11.2128
52 Ar 8.86286 11.1923 2.27076
53 Ar 9.11048 11.3003 6.81869
54 Ar 8.97359 11.0913 11.0107
55 Ar 2.24923 -0.197231 2.1585
56 Ar 2.28444 0.0404748 6.61365
57 Ar 2.14341 -0.0497718 10.9109
58 Ar 2.46787 4.35784 2.33462
59 Ar 2.26837 4.44415 6.65593
60 Ar 2.26517 4.27923 11.0874
61 Ar 2.21396 9.03321 2.00483
62 Ar 2.15992 8.96267 6.83114
63 Ar 2.10706 8.73747 11.0355
64 Ar 6.63687 -0.0160972 2.4428
65 Ar 6.49936 -0.14632 6.7369
66 Ar 6.97644 -0.00373849 10.9967
67 Ar 6.66552 4.37434 2.23859
68 Ar 6.77204 4.59946 6.66008
69 Ar 6.71048 4.25579 11.3402
70 Ar 6.78328 8.90614 2.12307
71 Ar 6.80884 8.81096 6.82414
72 Ar 6.75518 8.85226 11.033
73 Ar 11.068 0.101036 2.44263
74 Ar 11.2607 0.121057 6.66009
75 Ar 11.2242 0.0255291 11.1283
76 Ar 11.1607 4.46515 2.30845
77 Ar 10.9473 4.4051 6.69174
78 Ar 11.1389 4.44236 11.118
79 Ar 11.0879 9.02297 2.28235
80 Ar 11.3232 9.07784 6.72336
81 Ar 11.1055 9.02772 11.1234
82 Ar 2.23752 2.00609 0.0352696
83 Ar 2.30038 2.24881 4.53537
84 Ar 2.27725 2.26926 8.92907
85 Ar 1.92747 6.53681 0.107268
86 Ar 2.30343 6.65995 4.48451
87 Ar 2.15983 6.46782 8.95358
88 Ar 2.10212 11.1898 -0.000541862
89 Ar 2.03944 11.2383 4.30928
90 Ar 2.25951 11.0722 9.02887
91 Ar 6.56181 2.11428 0.0580383
92 Ar 6.6512 2.1074 4.33352
93 Ar 6.58873 2.21814 8.98775
94 Ar 6.73709 6.61133 -0.104879
95 Ar 6.67465 6.87872 4.425
96 Ar 6.73156 6.60919 9.00093
97 Ar 6.72416 11.2233 -0.0137197
98 Ar 6.5526 11.0757 4.41361
99 Ar 6.66448 11.0945 8.82241
100 Ar 10.8337 2.20936 0.286968
101 Ar 11.1689 2.24734 4.33849
102 Ar 10.9128 2.26483 8.88358
103 Ar 11.1628 6.64472 -0.0300148
104 Ar 11.0269 6.80565 4.67086
105 Ar 11.1254 6.75225 8.90932
106 Ar 11.001 11.1101 0.0332374
107 Ar 11.1488 11.2563 4.4541
108 Ar 11.2727 11.2478 8.8455
ITEM: TIMESTEP
82070
ITEM: NUMBER OF ATOMS
108
ITEM: BOX BOUNDS pp pp pp
0.0000000000000000e+00 1.3349999400000000e+01
0.0000000000000000e+00 1.3349999400000000e+01
0.0000000000000000e+00 1.3349999400000000e+01
ITEM: ATOMS id element xu yu zu
1 Ar -0.150726 -0.0798677 0.08578
2 Ar 0.135578 0.0946933 4.34444
3 Ar -0.123116 0.223555 8.67062
4 Ar -0.125653 4.11191 0.0195559
5 Ar -0.104722 4.45261 4.45569
6 Ar -0.0417882 4.38585 8.75694
7 Ar -0.141219 9.02678 -0.135271
8 Ar 0.164159 8.92092 4.5153
9 Ar 0.0873102 8.95327 8.80938
10 Ar 4.54596 -0.111509 0.0182444
11 Ar 4.28776 0.121378 4.48398
12 Ar 4.63151 0.0411181 8.82687
13 Ar 4.22601 4.54383 -0.0407739
14 Ar 4.5287 4.58431 4.55847
15 Ar 4.4115 4.5234 8.73866
16 Ar 4.35708 8.83229 -0.258895
17 Ar 4.3778 9.11814 4.40318
18 Ar 4.3667 8.81677 8.96907
19 Ar 8.8767 -0.0523967 -0.0115051
20 Ar 9.00617 -0.0294078 4.53605
21 Ar 8.92139 0.0654628 8.73068
22 Ar 8.95695 4.355 0.0766361
23 Ar 8.76874 4.39022 4.36938
24 Ar 8.90059 4.48309 8.85753
25 Ar 8.86204 8.90508 -0.0962862
26 Ar 8.97507 9.05008 4.37179
27 Ar 9.00185 8.85364 8.90981
28 Ar 0.0940359 2.1634 2.26481
29 Ar -0.126131 2.28545 6.5571
30 Ar -0.0215518 2.32367 11.0839
31 Ar -0.0940131 6.66947 2.47979
32 Ar -0.0448972 6.58566 6.73089
33 Ar -0.0827432 6.4134 11.0664
34 Ar -0.0540519 11.1007 2.31746
35 Ar 0.0681487 11.3207 6.5085
36 Ar 0.0922481 11.0409 11.1227
37 Ar 4.57076 2.13262 2.12561
38 Ar 4.63514 2.34464 6.64972
39 Ar 4.47938 2.1786 11.1516
40 Ar 4.47175 6.63407 2.19447
41 Ar 4.35345 6.71953 6.76013
42 Ar 4.43234 6.49586 11.0766
43 Ar 4.58446 11.0835 2.23184
44 Ar 4.46572 11.1374 6.60985
45 Ar 4.55186 11.1106 11.0992
46 Ar 8.76339 2.16465 2.19402
47 Ar 8.73259 2.35991 6.65036
48 Ar 9.00663 2.16268 11.3407
49 Ar 8.9294 6.79995 2.34112
50 Ar 8.98737 6.68027 6.68351
51 Ar 9.05958 6.58201 11.2091
52 Ar 8.87638 11.1971 2.2918
53 Ar 9.10245 11.2965 6.81009
54 Ar 8.95678 11.1101 11.0105
55 Ar 2.27306 -0.179355 2.14813
56 Ar 2.26851 0.0323558 6.60459
57 Ar 2.1541 -0.0617168 10.8939
58 Ar 2.46755 4.3657 2.33711
59 Ar 2.28326 4.45582 6.65322
60 Ar 2.26944 4.27499 11.0852
61 Ar 2.21504 9.02967 2.00305
62 Ar 2.14478 8.93944 6.83326
63 Ar 2.09699 8.75436 11.0382
64 Ar 6.63454 -0.0226271 2.4281
65 Ar 6.50522 -0.157813 6.7359
66 Ar 7.00376 -0.00381813 11.0013
67 Ar 6.66977 4.39441 2.26309
68 Ar 6.76458 4.58642 6.66051
69 Ar 6.70972 4.26204 11.3365
70 Ar 6.77441 8.91261 2.11288
71 Ar 6.78854 8.79597 6.83649
72 Ar 6.75868 8.83939 11.0346
73 Ar 11.0664 0.0970779 2.43646
74 Ar 11.2541 0.143399 6.67854
75 Ar 11.2134 0.0132733 11.1195
76 Ar 11.1839 4.47045 2.30101
77 Ar 10.9411 4.41878 6.69745
78 Ar 11.1594 4.43835 11.1133
79 Ar 11.0916 9.009 2.29604
80 Ar 11.3276 9.07461 6.70739
81 Ar 11.0911 9.00029 11.1028
82 Ar 2.25546 2.00971 0.037786
83 Ar 2.30214 2.23397 4.541
84 Ar 2.28932 2.2469 8.91538
85 Ar 1.92274 6.54366 0.129501
86 Ar 2.30966 6.68165 4.47949
87 Ar 2.14317 6.47953 8.96986
88 Ar 2.0834 11.1938 0.00397434
89 Ar 2.03927 11.2395 4.32349
90 Ar 2.27326 11.0668 9.03105
91 Ar 6.56726 2.11429 0.0411877
92 Ar 6.64155 2.1154 4.33257
93 Ar 6.56463 2.22898 8.97759
94 Ar 6.72802 6.61333 -0.0973516
95 Ar 6.68329 6.87963 4.4263
96 Ar 6.74682 6.59472 8.9968
97 Ar 6.73195 11.2275 -0.0145684
98 Ar 6.56442 11.0831 4.41739
99 Ar 6.66072 11.0837 8.81358
100 Ar 10.8321 2.20344 0.316584
101 Ar 11.1721 2.25447 4.34411
102 Ar 10.9277 2.26019 8.88349
103 Ar 11.1716 6.6583 -0.0379197
104 Ar 11.015 6.8092 4.69437
105 Ar 11.1235 6.75777 8.91161
106 Ar 10.9907 11.1197 0.0224286
107 Ar 11.1642 11.2661 4.4545
108 Ar 11.2427 11.2275 8.85037
ITEM: TIMESTEP
82080
ITEM: NUMBER OF ATOMS
108
ITEM: BOX BOUNDS pp pp pp
0.0000000000000000e+00 1.3349999400000000e+01
0.0000000000000000e+00 1.3349999400000000e+01
0.0000000000000000e+00 1.3349999400000000e+01
ITEM: ATOMS id element xu yu zu
1 Ar -0.143317 -0.0578939 0.0714193
2 Ar 0.131659 0.0717838 4.34983
3 Ar -0.109533 0.246282 8.6852
4 Ar -0.133413 4.13497 0.02683
5 Ar -0.0895783 4.44487 4.4748
6 Ar -0.0300331 4.38361 8.74009
7 Ar -0.151331 9.03521 -0.121263
8 Ar 0.189502 8.91223 4.51639
9 Ar 0.0904092 8.97283 8.80955
10 Ar 4.54238 -0.109981 0.0435107
11 Ar 4.2673 0.133719 4.46995
12 Ar 4.6205 0.0442568 8.82512
13 Ar 4.2114 4.52378 -0.0364645
14 Ar 4.53977 4.59606 4.5683
15 Ar 4.41641 4.52717 8.73209
16 Ar 4.37153 8.8286 -0.269639
17 Ar 4.37633 9.11205 4.38728
18 Ar 4.36318 8.81073 8.97305
19 Ar 8.87457 -0.0495289 -0.00392997
20 Ar 9.00025 -0.0409371 4.53444
21 Ar 8.92764 0.0620665 8.7542
22 Ar 8.956 4.36423 0.0861951
23 Ar 8.7742 4.39219 4.39469
24 Ar 8.90628 4.46987 8.86116
25 Ar 8.87655 8.92029 -0.0891557
26 Ar 8.98643 9.0616 4.37506
27 Ar 9.00387 8.82404 8.89699
28 Ar 0.0664009 2.16088 2.24678
29 Ar -0.122451 2.28246 6.56881
30 Ar -0.0378137 2.34025 11.0631
31 Ar -0.0871847 6.65064 2.46928
32 Ar -0.0504967 6.5746 6.72343
33 Ar -0.0730827 6.43393 11.0723
34 Ar -0.0747004 11.0893 2.3073
35 Ar 0.0632925 11.3205 6.48444
36 Ar 0.0874036 11.0449 11.1372
37 Ar 4.57519 2.13291 2.1305
38 Ar 4.64372 2.33698 6.62741