ITEM: TIMESTEP
64000
ITEM: NUMBER OF ATOMS
108
ITEM: BOX BOUNDS pp pp pp
0.0000000000000000e+00 1.3349999400000000e+01
0.0000000000000000e+00 1.3349999400000000e+01
0.0000000000000000e+00 1.3349999400000000e+01
ITEM: ATOMS id element xu yu zu
1 Ar 0.172385 -0.0654519 -0.15425
2 Ar -0.198257 -0.0387329 4.42162
3 Ar 0.0200849 -0.0930919 8.79042
4 Ar -0.116691 4.44492 -0.187113
5 Ar 0.392333 4.35325 4.50358
6 Ar 0.0900318 4.4075 8.92891
7 Ar -0.0124876 8.83996 0.0526679
8 Ar -0.00659655 8.82972 4.30681
9 Ar -0.0963588 8.87963 8.873
10 Ar 4.47604 -0.127655 -0.155307
11 Ar 4.6798 -0.0972997 4.55075
12 Ar 4.3556 0.0906996 9.03797
13 Ar 4.41921 4.35526 -0.149981
14 Ar 4.24255 4.54959 4.46334
15 Ar 4.52472 4.42106 9.0093
16 Ar 4.55423 8.87625 -0.0408403
17 Ar 4.4992 9.09001 4.47998
18 Ar 4.42697 9.00182 9.06926
19 Ar 8.89305 0.0665123 -0.107796
20 Ar 8.96084 0.0426376 4.63107
21 Ar 8.98651 0.0486307 9.10179
22 Ar 8.91596 4.3693 0.0638641
23 Ar 8.81769 4.59012 4.41516
24 Ar 8.88983 4.42643 8.68522
25 Ar 8.7952 9.00023 -0.0221574
26 Ar 8.99586 8.79685 4.38457
27 Ar 8.95906 8.98418 8.87039
28 Ar 0.0970826 2.27057 2.19974
29 Ar 0.119177 2.21728 6.57018
30 Ar 0.00521835 2.10501 10.9702
31 Ar 0.0722139 6.43646 2.13817
32 Ar -0.204486 6.82089 6.37561
33 Ar 0.0734992 6.76937 11.2241
34 Ar -0.00813845 11.2103 2.13952
35 Ar -0.0331144 11.2676 6.5407
36 Ar -0.0402537 11.1766 11.1981
37 Ar 4.40817 2.13913 2.2275
38 Ar 4.41078 2.1365 6.80348
39 Ar 4.38452 2.1695 11.101
40 Ar 4.38724 6.66151 2.30571
41 Ar 4.28339 6.97761 6.7453
42 Ar 4.43231 6.71724 11.0069
43 Ar 4.33849 11.1017 2.2147
44 Ar 4.49838 11.125 6.75831
45 Ar 4.50088 10.9113 11.1002
46 Ar 8.88274 1.99663 2.14181
47 Ar 8.75112 2.13717 6.80609
48 Ar 8.85007 2.45203 11.0407
49 Ar 8.90341 6.64604 2.11666
50 Ar 9.0771 6.79374 6.48319
51 Ar 9.01878 6.65817 11.1537
52 Ar 8.86898 11.3051 2.42193
53 Ar 8.93591 11.0467 6.54421
54 Ar 8.78357 11.0193 11.2513
55 Ar 2.3423 0.0844497 2.11141
56 Ar 2.07041 0.0110892 6.54309
57 Ar 2.18903 -0.150954 11.1294
58 Ar 2.21997 4.27496 2.14021
59 Ar 2.36677 4.47601 6.7481
60 Ar 2.25379 4.59442 11.0702
61 Ar 2.26328 8.96968 2.27747
62 Ar 2.03029 9.00719 6.84383
63 Ar 2.11834 8.80724 11.383
64 Ar 6.60549 0.0307183 2.26057
65 Ar 6.81483 -0.0359237 7.01771
66 Ar 6.57946 -0.21412 11.0882
67 Ar 6.58809 4.51336 2.30099
68 Ar 6.56607 4.43759 6.73918
69 Ar 6.81044 4.49922 11.2551
70 Ar 6.62354 8.87598 2.34848
71 Ar 6.63157 8.96281 6.67856
72 Ar 6.65648 8.91113 11.2164
73 Ar 11.2003 0.105118 2.12277
74 Ar 11.0513 0.0883196 6.6819
75 Ar 11.0517 0.165058 11.1338
76 Ar 11.1421 4.28234 2.14081
77 Ar 11.1521 4.48312 6.56387
78 Ar 11 4.36099 11.0599
79 Ar 11.0862 9.02959 2.15209
80 Ar 11.1787 9.02107 6.57143
81 Ar 11.2266 8.86907 11.2416
82 Ar 2.32553 2.26902 -0.105924
83 Ar 2.27653 2.09117 4.4341
84 Ar 2.29253 2.13408 8.92346
85 Ar 2.35975 6.62862 0.177491
86 Ar 2.23122 6.84147 4.58361
87 Ar 1.98955 6.91356 9.00647
88 Ar 2.20418 10.9892 0.0352427
89 Ar 2.16085 11.0632 4.39235
90 Ar 2.06042 10.9962 8.96235
91 Ar 6.62896 2.08618 0.0973291
92 Ar 6.58152 2.21538 4.61211
93 Ar 6.57027 2.26778 8.93933
94 Ar 6.88587 6.68207 -0.000382681
95 Ar 6.5818 6.72457 4.52374
96 Ar 6.65561 6.78182 8.8854
97 Ar 6.56205 11.1463 0.244108
98 Ar 6.70775 11.3087 4.49187
99 Ar 6.80458 11.0587 8.91846
100 Ar 11.1117 2.31343 -0.0700291
101 Ar 11.2734 2.21602 4.5114
102 Ar 11.2945 2.26285 8.78889
103 Ar 11.1289 6.63345 0.143606
104 Ar 11.0836 6.3731 4.37074
105 Ar 11.3177 6.46745 8.79057
106 Ar 11.1152 11.239 -0.118631
107 Ar 11.0925 11.0088 4.18395
108 Ar 11.2006 11.2671 8.80709
ITEM: TIMESTEP
64010
ITEM: NUMBER OF ATOMS
108
ITEM: BOX BOUNDS pp pp pp
0.0000000000000000e+00 1.3349999400000000e+01
0.0000000000000000e+00 1.3349999400000000e+01
0.0000000000000000e+00 1.3349999400000000e+01
ITEM: ATOMS id element xu yu zu
1 Ar 0.170777 -0.0618795 -0.145886
2 Ar -0.176748 -0.0299543 4.41153
3 Ar 0.036426 -0.0977401 8.80999
4 Ar -0.116451 4.457 -0.204292
5 Ar 0.383199 4.35987 4.49222
6 Ar 0.0792921 4.40268 8.93273
7 Ar -0.00419802 8.83155 0.0482531
8 Ar -0.0168036 8.81048 4.28882
9 Ar -0.087999 8.89608 8.88175
10 Ar 4.48648 -0.135412 -0.147314
11 Ar 4.67112 -0.0866672 4.53652
12 Ar 4.34461 0.0944009 9.04781
13 Ar 4.43866 4.3748 -0.137596
14 Ar 4.24788 4.53497 4.47327
15 Ar 4.52555 4.42943 9.01604
16 Ar 4.5764 8.88257 -0.0334242
17 Ar 4.48394 9.08247 4.47054
18 Ar 4.43184 9.01161 9.05253
19 Ar 8.90876 0.0833649 -0.118669
20 Ar 8.97149 0.0558142 4.60682
21 Ar 8.99706 0.0458789 9.0815
22 Ar 8.89072 4.37524 0.0774093
23 Ar 8.83452 4.59998 4.43162
24 Ar 8.89376 4.41429 8.66041
25 Ar 8.79652 8.99567 -0.0246434
26 Ar 8.98203 8.81145 4.37655
27 Ar 8.96105 9.00754 8.87789
28 Ar 0.0890879 2.25408 2.20189
29 Ar 0.110837 2.18905 6.58054
30 Ar 0.0168642 2.10054 10.9663
31 Ar 0.0546816 6.43153 2.14608
32 Ar -0.189117 6.82689 6.39918
33 Ar 0.0781987 6.78325 11.2217
34 Ar 0.0078642 11.2085 2.13553
35 Ar -0.0407283 11.2964 6.53725
36 Ar -0.0247988 11.1899 11.1962
37 Ar 4.39601 2.1329 2.24904
38 Ar 4.41674 2.13515 6.80579
39 Ar 4.39015 2.17018 11.1104
40 Ar 4.39029 6.70169 2.30161
41 Ar 4.26655 6.9913 6.7229
42 Ar 4.45656 6.70939 11.0266
43 Ar 4.334 11.0939 2.22016
44 Ar 4.50147 11.1237 6.77117
45 Ar 4.52678 10.9063 11.1208
46 Ar 8.88913 1.9696 2.13736
47 Ar 8.7702 2.12751 6.80624
48 Ar 8.83668 2.4641 11.0437
49 Ar 8.89894 6.63136 2.12947
50 Ar 9.07155 6.76893 6.49369
51 Ar 9.01269 6.65262 11.1546
52 Ar 8.86624 11.3126 2.41432
53 Ar 8.94154 11.0683 6.54455
54 Ar 8.79324 11.0205 11.2526
55 Ar 2.34628 0.0927858 2.12343
56 Ar 2.09146 0.00249542 6.53955
57 Ar 2.1917 -0.131982 11.1269
58 Ar 2.20624 4.26816 2.14706
59 Ar 2.35814 4.48085 6.75339
60 Ar 2.25181 4.59663 11.0709
61 Ar 2.27772 8.97174 2.28396
62 Ar 2.02068 8.99588 6.8195
63 Ar 2.12826 8.79288 11.3816
64 Ar 6.6003 0.00819035 2.2685
65 Ar 6.82547 -0.0252033 7.03
66 Ar 6.57316 -0.211569 11.093
67 Ar 6.57926 4.50861 2.28813
68 Ar 6.56721 4.44962 6.73422
69 Ar 6.80602 4.50155 11.2689
70 Ar 6.62802 8.88616 2.33487
71 Ar 6.63775 8.96492 6.66528
72 Ar 6.63446 8.90918 11.2234
73 Ar 11.1861 0.09871 2.11733
74 Ar 11.044 0.0845752 6.68637
75 Ar 11.0477 0.145628 11.1278
76 Ar 11.1535 4.28928 2.1508
77 Ar 11.1529 4.46467 6.5725
78 Ar 11.0063 4.33867 11.073
79 Ar 11.0857 9.03233 2.15576
80 Ar 11.1827 9.00748 6.58973
81 Ar 11.2188 8.87759 11.2218
82 Ar 2.30643 2.26748 -0.129528
83 Ar 2.26902 2.08131 4.43524
84 Ar 2.26801 2.14419 8.90467
85 Ar 2.34709 6.63197 0.176871
86 Ar 2.20628 6.84035 4.5862
87 Ar 1.99758 6.89426 9.01724
88 Ar 2.19652 11.006 0.0300463
89 Ar 2.14472 11.0781 4.38637
90 Ar 2.06687 10.9843 8.94413
91 Ar 6.62155 2.08845 0.0902189
92 Ar 6.58921 2.214 4.63167
93 Ar 6.56095 2.27694 8.94149
94 Ar 6.87933 6.66134 -0.00464104
95 Ar 6.58176 6.73721 4.53585
96 Ar 6.65606 6.77426 8.86687
97 Ar 6.55974 11.1535 0.230161
98 Ar 6.71004 11.3119 4.48329
99 Ar 6.81266 11.0299 8.90776
100 Ar 11.0994 2.32635 -0.0791495
101 Ar 11.2602 2.21927 4.51363
102 Ar 11.2894 2.23504 8.79545
103 Ar 11.122 6.61835 0.152478
104 Ar 11.0814 6.39597 4.34469
105 Ar 11.3137 6.46922 8.7783
106 Ar 11.1411 11.2484 -0.0855389
107 Ar 11.0981 10.999 4.1774
108 Ar 11.1977 11.257 8.81907
ITEM: TIMESTEP
64020
ITEM: NUMBER OF ATOMS
108
ITEM: BOX BOUNDS pp pp pp
0.0000000000000000e+00 1.3349999400000000e+01
0.0000000000000000e+00 1.3349999400000000e+01
0.0000000000000000e+00 1.3349999400000000e+01
ITEM: ATOMS id element xu yu zu
1 Ar 0.166553 -0.0551084 -0.134231
2 Ar -0.153211 -0.0211044 4.3998
3 Ar 0.0528507 -0.10054 8.83058
4 Ar -0.113549 4.4677 -0.220781
5 Ar 0.37018 4.36818 4.48086
6 Ar 0.069193 4.39843 8.9353
7 Ar 0.00319647 8.82391 0.0465171
8 Ar -0.0282418 8.79339 4.26986
9 Ar -0.0825982 8.91381 8.89157
10 Ar 4.49464 -0.141785 -0.137772
11 Ar 4.65751 -0.0746123 4.52338
12 Ar 4.33466 0.0930078 9.05505
13 Ar 4.45977 4.396 -0.123168
14 Ar 4.25535 4.51925 4.48319
15 Ar 4.52498 4.43965 9.02177
16 Ar 4.59667 8.88699 -0.0235772
17 Ar 4.4679 9.07405 4.46186
18 Ar 4.43592 9.01904 9.03268
19 Ar 8.92321 0.0982542 -0.129722
20 Ar 8.98119 0.0699078 4.58055
21 Ar 9.00617 0.0424828 9.0608
22 Ar 8.86533 4.38091 0.0917234
23 Ar 8.84963 4.60463 4.44776
24 Ar 8.89773 4.40463 8.63792
25 Ar 8.79994 8.9904 -0.0243057
26 Ar 8.96677 8.82674 4.36795
27 Ar 8.96483 9.02785 8.88584
28 Ar 0.0798131 2.23596 2.20275
29 Ar 0.101715 2.1622 6.59295
30 Ar 0.0292949 2.09758 10.9647
31 Ar 0.037063 6.42871 2.15593
32 Ar -0.171149 6.82963 6.42626
33 Ar 0.0791623 6.79395 11.2192
34 Ar 0.024224 11.2065 2.13176
35 Ar -0.0495743 11.3216 6.53404
36 Ar -0.0102462 11.2006 11.1923
37 Ar 4.38632 2.12878 2.27039
38 Ar 4.42264 2.13411 6.8058
39 Ar 4.39743 2.17191 11.1209
40 Ar 4.39439 6.74139 2.29726
41 Ar 4.25163 7.00209 6.70213
42 Ar 4.481 6.70127 11.0482
43 Ar 4.33101 11.0877 2.22616
44 Ar 4.50262 11.1239 6.78457
45 Ar 4.54961 10.9057 11.1424
46 Ar 8.895 1.94677 2.13633
47 Ar 8.7915 2.12052 6.80458
48 Ar 8.82269 2.47126 11.0468
49 Ar 8.89451 6.6179 2.14441
50 Ar 9.06356 6.74411 6.50847
51 Ar 9.0068 6.64806 11.1535
52 Ar 8.86277 11.319 2.40228
53 Ar 8.94768 11.0903 6.54612
54 Ar 8.80499 11.0239 11.2521
55 Ar 2.34812 0.0985495 2.13619
56 Ar 2.11631 -0.0079433 6.53756
57 Ar 2.19624 -0.112831 11.1234
58 Ar 2.19475 4.26361 2.15332
59 Ar 2.34848 4.48647 6.76077
60 Ar 2.24914 4.59717 11.072
61 Ar 2.29078 8.97116 2.28897
62 Ar 2.01257 8.98506 6.79184
63 Ar 2.14073 8.78108 11.3774
64 Ar 6.59553 -0.0138243 2.27621
65 Ar 6.83313 -0.015684 7.0393
66 Ar 6.56907 -0.2063 11.0976
67 Ar 6.57048 4.50212 2.27502
68 Ar 6.56793 4.46342 6.72769
69 Ar 6.79888 4.50434 11.2801
70 Ar 6.63375 8.89664 2.32063
71 Ar 6.64554 8.96636 6.65186
72 Ar 6.61523 8.90525 11.2285
73 Ar 11.1722 0.0916478 2.11172
74 Ar 11.0379 0.0795749 6.69104
75 Ar 11.0457 0.124953 11.122
76 Ar 11.1643 4.29612 2.16302
77 Ar 11.1546 4.44366 6.58145
78 Ar 11.0151 4.31944 11.0848
79 Ar 11.0852 9.03153 2.15698
80 Ar 11.1862 8.99406 6.60829
81 Ar 11.209 8.88634 11.2007
82 Ar 2.28517 2.26493 -0.152972
83 Ar 2.26308 2.07134 4.43652
84 Ar 2.24164 2.15591 8.88597
85 Ar 2.33363 6.63517 0.174343
86 Ar 2.18219 6.83839 4.58651
87 Ar 2.00887 6.87211 9.02499
88 Ar 2.1903 11.0239 0.0243274
89 Ar 2.12922 11.0949 4.38179
90 Ar 2.07547 10.9749 8.92688
91 Ar 6.61389 2.09261 0.0810532
92 Ar 6.59808 2.2136 4.64903
93 Ar 6.55355 2.28546 8.94559
94 Ar 6.86865 6.64102 -0.00843374
95 Ar 6.58173 6.74894 4.54809
96 Ar 6.65812 6.76609 8.84829
97 Ar 6.56053 11.1601 0.214568
98 Ar 6.71323 11.3113 4.47559
99 Ar 6.81933 11.002 8.89741
100 Ar 11.0886 2.33624 -0.08802
101 Ar 11.2441 2.2246 4.51426
102 Ar 11.2822 2.20781 8.80188
103 Ar 11.1147 6.60437 0.158939
104 Ar 11.082 6.42233 4.31559
105 Ar 11.3072 6.47402 8.76833
106 Ar 11.1658 11.2569 -0.0512009
107 Ar 11.1055 10.9926 4.17604
108 Ar 11.1932 11.2448 8.83286
ITEM: TIMESTEP
64030
ITEM: NUMBER OF ATOMS
108
ITEM: BOX BOUNDS pp pp pp
0.0000000000000000e+00 1.3349999400000000e+01
0.0000000000000000e+00 1.3349999400000000e+01
0.0000000000000000e+00 1.3349999400000000e+01
ITEM: ATOMS id element xu yu zu
1 Ar 0.159827 -0.0451534 -0.119606
2 Ar -0.128311 -0.0121352 4.38647
3 Ar 0.0690943 -0.101773 8.85176
4 Ar -0.108019 4.47689 -0.236182
5 Ar 0.353351 4.37763 4.47004
6 Ar 0.0595452 4.39483 8.93668
7 Ar 0.00950802 8.81718 0.0473899
8 Ar -0.0408433 8.77866 4.25032
9 Ar -0.0797086 8.93236 8.90226
10 Ar 4.50018 -0.146487 -0.126648
11 Ar 4.63943 -0.0616128 4.51165
12 Ar 4.32581 0.0868123 9.05961
13 Ar 4.48164 4.41831 -0.106713
14 Ar 4.26472 4.50291 4.49283
15 Ar 4.52293 4.45155 9.02635
16 Ar 4.61443 8.88947 -0.0113108
17 Ar 4.45139 9.06515 4.45421
18 Ar 4.43914 9.02388 9.01037
19 Ar 8.93607 0.110933 -0.141009
20 Ar 8.98985 0.0845142 4.55279
21 Ar 9.01361 0.0384096 9.0403
22 Ar 8.8404 4.38596 0.106757
23 Ar 8.86275 4.60396 4.46327
24 Ar 8.90172 4.39745 8.61835
25 Ar 8.80534 8.98436 -0.0213216
26 Ar 8.95039 8.84242 4.35928
27 Ar 8.97037 9.04455 8.89404
28 Ar 0.0693031 2.21658 2.20221
29 Ar 0.0918954 2.137 6.60691
30 Ar 0.0420088 2.09614 10.9654
31 Ar 0.019781 6.42805 2.16724
32 Ar -0.151204 6.82891 6.4563
33 Ar 0.0761634 6.80141 11.2164
34 Ar 0.0407198 11.2041 2.12838
35 Ar -0.0596179 11.3428 6.53121
36 Ar 0.00327163 11.2087 11.1865
37 Ar 4.37941 2.12696 2.29104
38 Ar 4.4283 2.13347 6.80371
39 Ar 4.40608 2.17483 11.1321
40 Ar 4.3995 6.77973 2.29294
41 Ar 4.23888 7.00982 6.68326
42 Ar 4.50526 6.69314 11.0711
43 Ar 4.3296 11.0832 2.23248
44 Ar 4.50197 11.1255 6.79793
45 Ar 4.56879 10.9095 11.1642
46 Ar 8.89997 1.92867 2.13854
47 Ar 8.8146 2.11625 6.80106
48 Ar 8.80827 2.47343 11.0496
49 Ar 8.88985 6.60589 2.16116
50 Ar 9.05351 6.72002 6.52696
51 Ar 9.00125 6.64441 11.1504
52 Ar 8.85882 11.3241 2.38595
53 Ar 8.95434 11.1124 6.5487
54 Ar 8.81856 11.0292 11.2501
55 Ar 2.34781 0.101591 2.14925
56 Ar 2.14464 -0.0200658 6.53732
57 Ar 2.20261 -0.0938673 11.1192
58 Ar 2.18568 4.26131 2.15871
59 Ar 2.33782 4.49274 6.7699
60 Ar 2.24603 4.59604 11.0736
61 Ar 2.30201 8.9681 2.29229
62 Ar 2.00571 8.97516 6.76143
63 Ar 2.15593 8.77217 11.3706
64 Ar 6.59119 -0.0346678 2.28331
65 Ar 6.83756 -0.00758094 7.04553
66 Ar 6.56748 -0.198454 11.1016
67 Ar 6.56179 4.49401 2.26233
68 Ar 6.56812 4.47869 6.71973
69 Ar 6.78916 4.50743 11.2882
70 Ar 6.64079 8.90731 2.30602
71 Ar 6.65489 8.96717 6.63835
72 Ar 6.59961 8.89922 11.2314
73 Ar 11.1591 0.0839817 2.10623
74 Ar 11.0333 0.0732151 6.69557
75 Ar 11.0457 0.103326 11.1165
76 Ar 11.1743 4.30244 2.17708
77 Ar 11.1574 4.42078 6.59026
78 Ar 11.026 4.30374 11.0948
79 Ar 11.0845 9.02716 2.15555
80 Ar 11.189 8.98102 6.62671
81 Ar 11.1976 8.89526 11.1789
82 Ar 2.26238 2.26176 -0.175627
83 Ar 2.25844 2.06176 4.43823
84 Ar 2.21431 2.16903 8.8676
85 Ar 2.3196 6.63806 0.170219
86 Ar 2.15943 6.83524 4.5842
87 Ar 2.02322 6.84772 9.02954
88 Ar 2.1858 11.0426 0.0180716
89 Ar 2.11456 11.1133 4.37866
90 Ar 2.08622 10.9678 8.91079
91 Ar 6.60608 2.09833 0.0703535
92 Ar 6.60815 2.21411 4.66396
93 Ar 6.54821 2.29331 8.95143
94 Ar 6.85418 6.62181 -0.011449
95 Ar 6.58168 6.75951 4.56003
96 Ar 6.66171 6.75757 8.82991
97 Ar 6.56467 11.1661 0.197607
98 Ar 6.71703 11.3071 4.46916
99 Ar 6.82439 10.9757 8.88772
100 Ar 11.0793 2.34305 -0.0963094
101 Ar 11.2258 2.23169 4.51327
102 Ar 11.2732 2.18153 8.80839
103 Ar 11.107 6.59177 0.162799
104 Ar 11.0855 6.4519 4.28486
105 Ar 11.2983 6.48168 8.76096
106 Ar 11.1889 11.264 -0.0163843
107 Ar 11.1147 10.9898 4.17983
108 Ar 11.1874 11.2309 8.8482
ITEM: TIMESTEP
64040
ITEM: NUMBER OF ATOMS
108
ITEM: BOX BOUNDS pp pp pp
0.0000000000000000e+00 1.3349999400000000e+01
0.0000000000000000e+00 1.3349999400000000e+01
0.0000000000000000e+00 1.3349999400000000e+01
ITEM: ATOMS id element xu yu zu
1 Ar 0.150771 -0.0321671 -0.102466
2 Ar -0.102712 -0.00299644 4.3717
3 Ar 0.0848881 -0.101756 8.87307
4 Ar -0.0999728 4.48443 -0.250063
5 Ar 0.332874 4.38767 4.46026
6 Ar 0.0501161 4.39196 8.93694
7 Ar 0.0146268 8.81149 0.0506787
8 Ar -0.0544753 8.76645 4.23066
9 Ar -0.0787718 8.95121 8.91364
10 Ar 4.50289 -0.149258 -0.113931
11 Ar 4.61752 -0.0481828 4.50161
12 Ar 4.31813 0.0762613 9.06149
13 Ar 4.50335 4.44122 -0.088286
14 Ar 4.27567 4.48639 4.50198
15 Ar 4.51941 4.46491 9.02968
16 Ar 4.6292 8.89007 0.00323414
17 Ar 4.43472 9.05617 4.44783
18 Ar 4.44145 9.02599 8.98636
19 Ar 8.94709 0.121243 -0.152511
20 Ar 8.99738 0.0991593 4.52413
21 Ar 9.01917 0.0336204 9.02051
22 Ar 8.81652 4.39005 0.122376
23 Ar 8.87381 4.59805 4.47788
24 Ar 8.90567 4.39263 8.60223
25 Ar 8.81257 8.97754 -0.0159687
26 Ar 8.93323 8.85825 4.35101
27 Ar 8.97757 9.05719 8.90227
28 Ar 0.0576658 2.19637 2.20021
29 Ar 0.0814732 2.11364 6.62189
30 Ar 0.0544761 2.09619 10.9684
31 Ar 0.00327152 6.42953 2.17946
32 Ar -0.129877 6.82467 6.48876
33 Ar 0.0691602 6.80575 11.2131
34 Ar 0.0571357 11.2013 2.12559
35 Ar -0.0707478 11.3599 6.5289
36 Ar 0.0156683 11.214 11.1793
37 Ar 4.37548 2.12756 2.31049
38 Ar 4.4336 2.13333 6.79978
39 Ar 4.41581 2.17902 11.1438
40 Ar 4.40556 6.81586 2.28888
41 Ar 4.22848 7.01432 6.66647
42 Ar 4.52893 6.68521 11.0949
43 Ar 4.32981 11.0807 2.23897
44 Ar 4.49975 11.1286 6.8107
45 Ar 4.58388 10.9174 11.1856
46 Ar 8.90366 1.91577 2.14368
47 Ar 8.83902 2.11465 6.79565
48 Ar 8.79367 2.47077 11.0521
49 Ar 8.88468 6.59552 2.17938
50 Ar 9.04183 6.69732 6.54849
51 Ar 8.99612 6.64157 11.1452
52 Ar 8.85475 11.3277 2.36559
53 Ar 8.96151 11.1343 6.55209
54 Ar 8.83366 11.0365 11.2469
55 Ar 2.34541 0.101863 2.1622
56 Ar 2.17597 -0.0336589 6.539
57 Ar 2.21071 -0.0754306 11.1146
58 Ar 2.17911 4.26117 2.16304
59 Ar 2.32622 4.49953 6.78035
60 Ar 2.24275 4.59327 11.0757
61 Ar 2.31098 8.96284 2.29374
62 Ar 1.99988 8.96661 6.72886
63 Ar 2.17388 8.76637 11.3615
64 Ar 6.58723 -0.0537428 2.28948
65 Ar 6.83858 -0.00100557 7.04861
66 Ar 6.5686 -0.188184 11.1048
67 Ar 6.55324 4.4844 2.25067
68 Ar 6.56769 4.49505 6.7105
69 Ar 6.77713 4.51064 11.2927
70 Ar 6.64916 8.91807 2.29133
71 Ar 6.66567 8.96743 6.62481
72 Ar 6.58825 8.89107 11.2319
73 Ar 11.1472 0.0757948 2.10118
74 Ar 11.0304 0.0654442 6.6996
75 Ar 11.0479 0.0810226 11.1113
76 Ar 11.1833 4.30782 2.19253
77 Ar 11.1617 4.39675 6.59861
78 Ar 11.0387 4.29184 11.1026
79 Ar 11.0836 9.01937 2.15147
80 Ar 11.191 8.96847 6.64461
81 Ar 11.1849 8.90426 11.1569
82 Ar 2.23868 2.25834 -0.196862
83 Ar 2.25479 2.05311 4.44065
84 Ar 2.18693 2.18328 8.84976
85 Ar 2.30522 6.64051 0.164803
86 Ar 2.13841 6.83057 4.57902
87 Ar 2.04036 6.82179 9.03082
88 Ar 2.1832 11.0615 0.0112791
89 Ar 2.10097 11.1326 4.37695
90 Ar 2.09906 10.9633 8.896
91 Ar 6.59822 2.10523 0.058637
92 Ar 6.61939 2.21541 4.67629
93 Ar 6.54498 2.30048 8.95875
94 Ar 6.8364 6.6044 -0.0133781
95 Ar 6.58163 6.76871 4.5712
96 Ar 6.6667 6.749 8.81197
97 Ar 6.57234 11.1714 0.179551
98 Ar 6.72111 11.2996 4.4643
99 Ar 6.82771 10.9518 8.87897
100 Ar 11.0716 2.34678 -0.103685
101 Ar 11.2057 2.24016 4.51072
102 Ar 11.2627 2.15655 8.81523
103 Ar 11.0987 6.58074 0.163943
104 Ar 11.0916 6.48432 4.2539
105 Ar 11.2871 6.492 8.7564
106 Ar 11.2102 11.2695 0.018122
107 Ar 11.1254 10.9907 4.18848
108 Ar 11.1805 11.2157 8.86479
ITEM: TIMESTEP
64050
ITEM: NUMBER OF ATOMS
108
ITEM: BOX BOUNDS pp pp pp
0.0000000000000000e+00 1.3349999400000000e+01
0.0000000000000000e+00 1.3349999400000000e+01
0.0000000000000000e+00 1.3349999400000000e+01
ITEM: ATOMS id element xu yu zu
1 Ar 0.139596 -0.0164373 -0.083366
2 Ar -0.0770608 0.00634521 4.35575
3 Ar 0.0999708 -0.100813 8.89405
4 Ar -0.089596 4.49025 -0.261977
5 Ar 0.308984 4.39775 4.45191
6 Ar 0.0406501 4.38993 8.93616
7 Ar 0.0185192 8.80694 0.0560813
8 Ar -0.0689289 8.75691 4.21138
9 Ar -0.0791645 8.96987 8.92543
10 Ar 4.50268 -0.149886 -0.0996431
11 Ar 4.59255 -0.0348391 4.49343
12 Ar 4.31171 0.0619193 9.06076
13 Ar 4.524 4.46418 -0.0679917
14 Ar 4.28787 4.47008 4.51049
15 Ar 4.51445 4.47948 9.03164
16 Ar 4.64062 8.88895 0.0197657
17 Ar 4.41818 9.04752 4.44294
18 Ar 4.44289 9.02528 8.9614
19 Ar 8.95604 0.129114 -0.164125
20 Ar 9.0037 0.113304 4.49521
21 Ar 9.02266 0.0280807 9.00191
22 Ar 8.79423 4.39293 0.138366
23 Ar 8.88285 4.58719 4.49137
24 Ar 8.90953 4.38998 8.59006
25 Ar 8.82141 8.96994 -0.00860959
26 Ar 8.91569 8.87404 4.34352
27 Ar 8.98627 9.06539 8.9103
28 Ar 0.0450655 2.17588 2.19676
29 Ar 0.0705474 2.09217 6.63734
30 Ar 0.0661595 2.0977 10.9737
31 Ar -0.0120292 6.4331 2.19195
32 Ar -0.107725 6.81695 6.5231
33 Ar 0.0582958 6.8072 11.2091
34 Ar 0.0732685 11.1981 2.12355
35 Ar -0.0827699 11.3728 6.5273
36 Ar 0.0269069 11.2165 11.1712
37 Ar 4.37461 2.13061 2.32828
38 Ar 4.43841 2.13381 6.79435
39 Ar 4.42631 2.1845 11.1557
40 Ar 4.41256 6.84895 2.28525
41 Ar 4.22056 7.0155 6.65186
42 Ar 4.55156 6.67768 11.1191
43 Ar 4.33163 11.0802 2.24545
44 Ar 4.49625 11.1331 6.82232
45 Ar 4.59461 10.9289 11.2058
46 Ar 8.90576 1.9084 2.15131
47 Ar 8.86421 2.1156 6.78837
48 Ar 8.77919 2.46356 11.0542
49 Ar 8.87872 6.58688 2.19868
50 Ar 9.02896 6.67656 6.57232
51 Ar 8.99143 6.6394 11.1382
52 Ar 8.8509 11.3297 2.34157
53 Ar 8.96911 11.1556 6.55608
54 Ar 8.84997 11.0456 11.2427
55 Ar 2.34107 0.0994379 2.17461
56 Ar 2.20968 -0.0484581 6.54278
57 Ar 2.22038 -0.0578334 11.1098
58 Ar 2.17501 4.26305 2.16621
59 Ar 2.31376 4.5067 6.79164
60 Ar 2.23955 4.58895 11.0784
61 Ar 2.31728 8.95574 2.29324
62 Ar 1.99483 8.95987 6.69479
63 Ar 2.1944 8.7637 11.3502
64 Ar 6.58363 -0.0705368 2.2945
65 Ar 6.83614 0.00403002 7.04854
66 Ar 6.5725 -0.175664 11.1067
67 Ar 6.54491 4.47347 2.24067
68 Ar 6.5666 4.5121 6.70021
69 Ar 6.76317 4.51376 11.2935
70 Ar 6.65884 8.92883 2.27681
71 Ar 6.67774 8.96726 6.61135
72 Ar 6.58159 8.88093 11.2301
73 Ar 11.1369 0.0672105 2.0969
74 Ar 11.0294 0.0562752 6.70278
75 Ar 11.0522 0.0583063 11.1067
76 Ar 11.1911 4.31195 2.2089
77 Ar 11.1676 4.37228 6.6063
78 Ar 11.0525 4.28388 11.1079
79 Ar 11.0822 9.00848 2.1449
80 Ar 11.1919 8.9565 6.66159
81 Ar 11.1711 8.91324 11.1354
82 Ar 2.21471 2.255 -0.216056
83 Ar 2.25181 2.04593 4.44402
84 Ar 2.16045 2.19835 8.83269
85 Ar 2.29074 6.64242 0.158371
86 Ar 2.11951 6.8241 4.57081
87 Ar 2.05998 6.79502 9.02892
88 Ar 2.1826 11.0803 0.0039649
89 Ar 2.08869 11.1524 4.37663
90 Ar 2.11384 10.9612 8.88256
91 Ar 6.59045 2.11296 0.0464018
92 Ar 6.63173 2.21738 4.68589
93 Ar 6.54384 2.30698 8.9672
94 Ar 6.81589 6.58941 -0.0139311
95 Ar 6.58158 6.77635 4.58117
96 Ar 6.67295 6.74066 8.79476
97 Ar 6.58358 11.176 0.160649
98 Ar 6.72515 11.2892 4.46126
99 Ar 6.82918 10.9308 8.8714
100 Ar 11.0657 2.34755 -0.109851
101 Ar 11.1844 2.24958 4.50666
102 Ar 11.251 2.13319 8.82268
103 Ar 11.09 6.57135 0.162327
104 Ar 11.0998 6.51914 4.22405
105 Ar 11.2737 6.50469 8.75475
106 Ar 11.2295 11.2731 0.0515286
107 Ar 11.1372 10.9949 4.20152
108 Ar 11.173 11.1997 8.88228
ITEM: TIMESTEP
64060
ITEM: NUMBER OF ATOMS
108
ITEM: BOX BOUNDS pp pp pp
0.0000000000000000e+00 1.3349999400000000e+01
0.0000000000000000e+00 1.3349999400000000e+01
0.0000000000000000e+00 1.3349999400000000e+01
ITEM: ATOMS id element xu yu zu
1 Ar 0.126545 0.00162166 -0.0629346
2 Ar -0.0519803 0.0158917 4.339
3 Ar 0.114099 -0.0992564 8.91424
4 Ar -0.0771522 4.49435 -0.271485
5 Ar 0.281987 4.40734 4.44529
6 Ar 0.0308909 4.38883 8.93448
7 Ar 0.021219 8.80358 0.0632037
8 Ar -0.0839125 8.75017 4.19302
9 Ar -0.0802403 8.98787 8.93737
10 Ar 4.49962 -0.148214 -0.0838485
11 Ar 4.56539 -0.0220712 4.48718
12 Ar 4.30665 0.0444317 9.05754
13 Ar 4.54273 4.48669 -0.0459825
14 Ar 4.30097 4.45431 4.51827
15 Ar 4.50813 4.49497 9.03216
16 Ar 4.64848 8.88642 0.0378365
17 Ar 4.40205 9.03954 4.43973
18 Ar 4.44351 9.02169 8.93622
19 Ar 8.96276 0.134561 -0.175662
20 Ar 9.00872 0.12636 4.46672
21 Ar 9.02397 0.0217708 8.98487
22 Ar 8.774 4.39438 0.154445
23 Ar 8.89001 4.57184 4.50362
24 Ar 8.9132 4.38926 8.58223
25 Ar 8.83167 8.96159 0.000325269
26 Ar 8.89821 8.88965 4.33711
27 Ar 8.99617 9.06891 8.91789
28 Ar 0.031712 2.15571 2.19191
29 Ar 0.0592161 2.07257 6.65268
30 Ar 0.0765351 2.10064 10.9809
31 Ar -0.0256999 6.43863 2.20401
32 Ar -0.0852526 6.80592 6.55882
33 Ar 0.0438782 6.80611 11.2042
34 Ar 0.0889313 11.1944 2.12242
35 Ar -0.0954053 11.3816 6.52655
36 Ar 0.0369995 11.2164 11.1625
37 Ar 4.37676 2.13602 2.34403
38 Ar 4.44268 2.13501 6.78777
39 Ar 4.43725 2.19125 11.1675
40 Ar 4.42047 6.87824 2.28221
41 Ar 4.21521 7.01327 6.63947
42 Ar 4.57268 6.67072 11.1433
43 Ar 4.33501 11.0816 2.25181
44 Ar 4.49181 11.139 6.83228
45 Ar 4.60092 10.9435 11.2243
46 Ar 8.90601 1.90683 2.16084
47 Ar 8.88962 2.11886 6.7793
48 Ar 8.76518 2.45224 11.0559
49 Ar 8.87173 6.58001 2.21872
50 Ar 9.01535 6.65822 6.59765
51 Ar 8.98716 6.63776 11.1295
52 Ar 8.84763 11.3301 2.31437
53 Ar 8.97705 11.1761 6.5605
54 Ar 8.86714 11.0562 11.2379
55 Ar 2.33502 0.0945091 2.18612
56 Ar 2.245 -0.0641476 6.5488
57 Ar 2.2314 -0.041348 11.1052
58 Ar 2.17327 4.26678 2.1682
59 Ar 2.30057 4.5141 6.80319
60 Ar 2.23669 4.58316 11.0818
61 Ar 2.32062 8.94724 2.29071
62 Ar 1.99038 8.95532 6.65984
63 Ar 2.2172 8.76404 11.3369
64 Ar 6.58032 -0.0846393 2.29824
65 Ar 6.8303 0.00759978 7.04531
66 Ar 6.57912 -0.161091 11.1073
67 Ar 6.53692 4.46138 2.23289
68 Ar 6.56478 4.52939 6.6891
69 Ar 6.74775 4.51656 11.2902
70 Ar 6.66977 8.9395 2.26275
71 Ar 6.69089 8.96677 6.59815
72 Ar 6.57983 8.86905 11.2259
73 Ar 11.1283 0.0583956 2.0937
74 Ar 11.0305 0.0457974 6.7048
75 Ar 11.0588 0.0354371 11.1026
76 Ar 11.1976 4.31461 2.22571
77 Ar 11.1753 4.34805 6.61324
78 Ar 11.0669 4.27985 11.1102
79 Ar 11.0803 8.99497 2.13613
80 Ar 11.1918 8.94511 6.67729
81 Ar 11.1566 8.92205 11.1151
82 Ar 2.19113 2.25201 -0.232615
83 Ar 2.24916 2.04075 4.44856
84 Ar 2.13574 2.21391 8.8166
85 Ar 2.27635 6.64373 0.151156
86 Ar 2.103 6.81561 4.55949
87 Ar 2.08168 6.76807 9.02408
88 Ar 2.18402 11.0987 -0.00383941
89 Ar 2.07795 11.172 4.37759
90 Ar 2.13029 10.9613 8.87051
91 Ar 6.58294 2.12117 0.0341161
92 Ar 6.64507 2.21983 4.69269
93 Ar 6.54467 2.31282 8.97638
94 Ar 6.79334 6.57741 -0.0128512
95 Ar 6.58156 6.78229 4.58953
96 Ar 6.68025 6.73281 8.77857
97 Ar 6.59832 11.1799 0.14112
98 Ar 6.72886 11.2764 4.46017
99 Ar 6.82875 10.9132 8.86522
100 Ar 11.0616 2.34553 -0.114578
101 Ar 11.1625 2.25952 4.50117
102 Ar 11.2383 2.11171 8.83097
103 Ar 11.0807 6.56355 0.157983
104 Ar 11.1095 6.55583 4.19653
105 Ar 11.2584 6.51944 8.75607
106 Ar 11.2465 11.2744 0.0830679
107 Ar 11.1498 11.0023 4.21831
108 Ar 11.1652 11.1835 8.90031
ITEM: TIMESTEP
64070
ITEM: NUMBER OF ATOMS
108
ITEM: BOX BOUNDS pp pp pp
0.0000000000000000e+00 1.3349999400000000e+01
0.0000000000000000e+00 1.3349999400000000e+01
0.0000000000000000e+00 1.3349999400000000e+01
ITEM: ATOMS id element xu yu zu
1 Ar 0.111877 0.0214822 -0.0418381
2 Ar -0.0280641 0.0256067 4.32191
3 Ar 0.127059 -0.0973671 8.93322
4 Ar -0.0629798 4.49671 -0.27818
5 Ar 0.252245 4.41601 4.44062
6 Ar 0.0206046 4.38878 8.93204
7 Ar 0.0228142 8.80145 0.0715821
8 Ar -0.0990549 8.74637 4.17612
9 Ar -0.0813653 9.00478 8.94916
10 Ar 4.49391 -0.144142 -0.066656
11 Ar 4.53694 -0.0103151 4.48283
12 Ar 4.30308 0.0244935 9.05202
13 Ar 4.55872 4.50824 -0.0224637
14 Ar 4.31461 4.4394 4.52528
15 Ar 4.5006 4.51109 9.03117
16 Ar 4.65273 8.88285 0.0568609
17 Ar 4.3866 9.03257 4.43833
18 Ar 4.4434 9.01521 8.91146
19 Ar 8.96717 0.137672 -0.186855
20 Ar 9.01239 0.137703 4.43931
21 Ar 9.02299 0.0146948 8.96968
22 Ar 8.75623 4.39428 0.170277
23 Ar 8.89549 4.55259 4.51451
24 Ar 8.91661 4.39013 8.57904
25 Ar 8.84312 8.95251 0.0103539
26 Ar 8.88127 8.90497 4.33198
27 Ar 9.00689 9.06766 8.92481
28 Ar 0.0178483 2.13653 2.18577
29 Ar 0.0475748 2.05476 6.66737
30 Ar 0.0851147 2.10492 10.9899
31 Ar -0.0373537 6.44594 2.21491
32 Ar -0.0629055 6.7918 6.59542
33 Ar 0.0263477 6.80291 11.1982
34 Ar 0.103955 11.1901 2.12228
35 Ar -0.108296 11.3864 6.52682
36 Ar 0.0460034 11.2138 11.154
37 Ar 4.38178 2.14363 2.35739
38 Ar 4.44637 2.13705 6.78044
39 Ar 4.44826 2.1992 11.179
40 Ar 4.42926 6.90304 2.27994
41 Ar 4.21241 7.0076 6.62928
42 Ar 4.59178 6.66452 11.1669
43 Ar 4.33986 11.0847 2.25794
44 Ar 4.48683 11.1458 6.8401
45 Ar 4.60293 10.9606 11.2406
46 Ar 8.90422 1.91116 2.1716
47 Ar 8.91469 2.12414 6.76858
48 Ar 8.75199 2.43734 11.0571
49 Ar 8.86351 6.57485 2.23915
50 Ar 9.00142 6.64263 6.62364
51 Ar 8.98322 6.6365 11.1192
52 Ar 8.84526 11.3287 2.28453
53 Ar 8.98516 11.1955 6.56521
54 Ar 8.88481 11.0682 11.2327
55 Ar 2.32755 0.0873839 2.19638
56 Ar 2.28108 -0.0803602 6.55714
57 Ar 2.24354 -0.0261953 11.101
58 Ar 2.1737 4.27215 2.16907
59 Ar 2.2868 4.52154 6.81441
60 Ar 2.2344 4.57605 11.0858
61 Ar 2.32077 8.93779 2.28619
62 Ar 1.98635 8.95328 6.62461
63 Ar 2.24185 8.76716 11.3219
64 Ar 6.57727 -0.0957528 2.30063
65 Ar 6.8212 0.00984422 7.03898
66 Ar 6.5883 -0.144697 11.1063
67 Ar 6.52941 4.44834 2.22786
68 Ar 6.56222 4.54647 6.67745
69 Ar 6.7314 4.51884 11.2828
70 Ar 6.68185 8.95001 2.24938
71 Ar 6.70493 8.96611 6.58541
72 Ar 6.58291 8.85582 11.2194
73 Ar 11.1217 0.0495555 2.09185
74 Ar 11.0337 0.0341843 6.70541
75 Ar 11.0676 0.0126747 11.0993
76 Ar 11.2027 4.31572 2.24245
77 Ar 11.1849 4.32473 6.61947
78 Ar 11.0814 4.27962 11.1097
79 Ar 11.0778 8.97941 2.12556
80 Ar 11.1907 8.93431 6.69138
81 Ar 11.1418 8.9305 11.0965
82 Ar 2.16859 2.24961 -0.245986
83 Ar 2.24654 2.03804 4.45439
84 Ar 2.11361 2.22958 8.80171
85 Ar 2.26228 6.6444 0.143337
86 Ar 2.08909 6.80495 4.54511
87 Ar 2.10506 6.74162 9.01666
88 Ar 2.18739 11.1164 -0.0120829
89 Ar 2.06896 11.1909 4.37973
90 Ar 2.14812 10.9636 8.85988
91 Ar 6.57583 2.12957 0.0222104
92 Ar 6.65924 2.22259 4.69668
93 Ar 6.5473 2.31803 8.98581
94 Ar 6.76956 6.56884 -0.00992775
95 Ar 6.58161 6.78643 4.59588
96 Ar 6.68837 6.7257 8.76369
97 Ar 6.61633 11.1831 0.121131
98 Ar 6.73201 11.2617 4.46107
99 Ar 6.82646 10.8991 8.86057
100 Ar 11.0591 2.34098 -0.11773
101 Ar 11.1405 2.26952 4.49434
102 Ar 11.225 2.09236 8.84033
103 Ar 11.0709 6.55725 0.151012
104 Ar 11.1198 6.59377 4.17245
105 Ar 11.2413 6.5359 8.76029
106 Ar 11.2613 11.2733 0.112018
107 Ar 11.1628 11.0126 4.23809
108 Ar 11.1572 11.1674 8.91846
ITEM: TIMESTEP
64080
ITEM: NUMBER OF ATOMS
108
ITEM: BOX BOUNDS pp pp pp
0.0000000000000000e+00 1.3349999400000000e+01
0.0000000000000000e+00 1.3349999400000000e+01
0.0000000000000000e+00 1.3349999400000000e+01
ITEM: ATOMS id element xu yu zu
1 Ar 0.0958628 0.0425204 -0.0207566
2 Ar -0.00586711 0.0354151 4.305
3 Ar 0.138671 -0.0953827 8.95062
4 Ar -0.0474859 4.49742 -0.281708
5 Ar 0.220171 4.42335 4.438
6 Ar 0.00960205 4.38985 8.92901
7 Ar 0.023431 8.80055 0.0807044
8 Ar -0.113916 8.74564 4.1612
9 Ar -0.0819499 9.02022 8.96049
10 Ar 4.48587 -0.137631 -0.0482206
11 Ar 4.50815 6.74694e-05 4.48026
12 Ar 4.30117 0.00282221 9.04448
13 Ar 4.57124 4.52835 0.00230456
14 Ar 4.32842 4.42561 4.53147
15 Ar 4.49204 4.52751 9.02861
16 Ar 4.65341 8.87872 0.0761536
17 Ar 4.37205 9.02685 4.43882
18 Ar 4.44268 9.0059 8.88769
19 Ar 8.96925 0.138595 -0.197382
20 Ar 9.01462 0.146713 4.41364
21 Ar 9.01967 0.00688756 8.95651
22 Ar 8.74118 4.39263 0.185494
23 Ar 8.89951 4.53017 4.52402
24 Ar 8.91969 4.39221 8.5807
25 Ar 8.85551 8.94275 0.0209589
26 Ar 8.86538 8.91992 4.32827
27 Ar 9.01792 9.06169 8.93081
28 Ar 0.0037393 2.11903 2.17854
29 Ar 0.0357178 2.0386 6.68093
30 Ar 0.0914674 2.11047 11.0002
31 Ar -0.0466627 6.45478 2.22394
32 Ar -0.0410677 6.77494 6.63246
33 Ar 0.00623712 6.79804 11.191
34 Ar 0.118183 11.1852 2.12321
35 Ar -0.121013 11.3875 6.52826
36 Ar 0.0540152 11.2089 11.1459
37 Ar 4.38937 2.15316 2.36812
38 Ar 4.44949 2.14003 6.77274