ITEM: TIMESTEP
28000
ITEM: NUMBER OF ATOMS
108
ITEM: BOX BOUNDS pp pp pp
0.0000000000000000e+00 1.3349999400000000e+01
0.0000000000000000e+00 1.3349999400000000e+01
0.0000000000000000e+00 1.3349999400000000e+01
ITEM: ATOMS id element xu yu zu
1 Ar -0.0442801 0.0299805 -0.119115
2 Ar 0.153565 -0.0590341 4.62374
3 Ar 0.183722 -0.0714861 9.16983
4 Ar -0.0356996 4.3618 0.0934569
5 Ar -0.147297 4.43223 4.33362
6 Ar 0.0430304 4.41414 8.52189
7 Ar -0.171397 8.74029 0.00230611
8 Ar -0.0625195 9.1414 4.43236
9 Ar -0.19952 8.80343 8.99863
10 Ar 4.58396 -0.000134961 -0.1058
11 Ar 4.38813 -0.0421518 4.53406
12 Ar 4.52246 0.114558 9.01153
13 Ar 4.46438 4.47245 0.0067755
14 Ar 4.40835 4.47301 4.55163
15 Ar 4.51203 4.45371 8.96197
16 Ar 4.6378 9.07389 -0.0562367
17 Ar 4.42581 8.83189 4.5391
18 Ar 4.48919 8.84192 8.96596
19 Ar 9.06442 0.119939 0.0218275
20 Ar 8.68901 -0.0210401 4.46149
21 Ar 8.88999 -0.0727132 8.65261
22 Ar 8.75347 4.48741 0.105366
23 Ar 8.92312 4.50252 4.37162
24 Ar 9.0138 4.3263 8.91409
25 Ar 9.01818 8.89126 0.0395971
26 Ar 8.9814 8.98974 4.35593
27 Ar 8.97567 8.84735 8.9385
28 Ar 0.169254 1.99794 2.06636
29 Ar 0.160411 2.17254 6.56306
30 Ar 0.0858673 2.15551 11.1522
31 Ar -0.237037 6.65183 2.22325
32 Ar 0.190521 6.78131 6.77105
33 Ar 0.014769 6.42759 11.2214
34 Ar 0.182658 11.1368 2.0252
35 Ar 0.02581 11.0385 7.01539
36 Ar -0.269868 10.9995 11.0576
37 Ar 4.39455 2.41696 2.34555
38 Ar 4.26367 2.45745 6.72819
39 Ar 4.50142 2.30331 11.034
40 Ar 4.26274 6.7465 2.34842
41 Ar 4.4911 6.68845 6.69997
42 Ar 4.51881 6.91465 11.1313
43 Ar 4.42078 11.0043 2.1707
44 Ar 4.46856 11.0469 6.58378
45 Ar 4.42749 11.2 11.0077
46 Ar 8.83449 2.22313 2.2768
47 Ar 8.92178 2.20991 6.48131
48 Ar 8.84173 2.29797 11.0308
49 Ar 8.91692 6.7013 2.16158
50 Ar 8.90659 6.70597 6.7039
51 Ar 8.80115 6.49134 10.9755
52 Ar 8.73777 11.1404 2.18194
53 Ar 8.72598 11.0329 6.63945
54 Ar 8.90363 11.1512 11.0897
55 Ar 2.30064 -0.163923 2.0303
56 Ar 2.29252 -0.202024 6.91813
57 Ar 2.21307 -0.0430118 11.2001
58 Ar 2.04563 4.51809 2.40122
59 Ar 2.10376 4.44668 6.59053
60 Ar 2.31186 4.51664 11.1038
61 Ar 2.24558 8.94468 2.14711
62 Ar 2.09864 9.0326 6.78989
63 Ar 2.03668 8.70762 11.1707
64 Ar 6.57996 0.2419 2.31599
65 Ar 6.72351 0.09336 6.54832
66 Ar 6.82899 0.105369 10.9641
67 Ar 6.5698 4.59018 2.23207
68 Ar 6.85339 4.41118 6.75198
69 Ar 6.60111 4.49529 11.1278
70 Ar 6.71619 8.76305 2.36437
71 Ar 6.6604 8.79889 6.71622
72 Ar 6.85213 9.05013 11.0124
73 Ar 11.1982 -0.057568 2.21267
74 Ar 11.2843 -0.215253 6.87959
75 Ar 10.955 -0.0126411 11.0423
76 Ar 11.0997 4.35806 2.38465
77 Ar 11.0216 4.61239 6.5174
78 Ar 11.2189 4.27067 10.9781
79 Ar 11.186 9.04807 2.08216
80 Ar 11.2213 8.86834 6.63281
81 Ar 10.9781 8.77629 11.203
82 Ar 2.3625 2.3911 0.166548
83 Ar 2.12088 2.15908 4.50138
84 Ar 2.1857 2.27839 8.93534
85 Ar 2.38461 6.66635 0.0132024
86 Ar 2.29638 6.88513 4.32778
87 Ar 2.14199 6.65315 8.90969
88 Ar 2.12782 10.8672 -0.25729
89 Ar 2.3637 11.1534 4.59629
90 Ar 2.14145 10.982 9.08009
91 Ar 6.70829 2.18046 0.166304
92 Ar 6.62193 2.49233 4.43794
93 Ar 6.77052 2.2442 8.66856
94 Ar 6.81806 6.79108 -0.0339521
95 Ar 6.64196 6.59967 4.49263
96 Ar 6.51452 6.71806 8.88087
97 Ar 6.69039 11.2105 -0.0967308
98 Ar 6.76308 11.1053 4.31135
99 Ar 6.65971 11.2146 9.0346
100 Ar 11.0705 2.30396 0.0164998
101 Ar 11.1827 2.03368 4.50658
102 Ar 11.1508 2.09472 8.895
103 Ar 10.9415 6.5349 -0.110257
104 Ar 11.0392 6.72616 4.36983
105 Ar 11.2603 6.77348 9.05236
106 Ar 11.2008 11.2168 -0.0027942
107 Ar 11.1767 11.2151 4.59105
108 Ar 11.0948 11.1271 8.96666
ITEM: TIMESTEP
28010
ITEM: NUMBER OF ATOMS
108
ITEM: BOX BOUNDS pp pp pp
0.0000000000000000e+00 1.3349999400000000e+01
0.0000000000000000e+00 1.3349999400000000e+01
0.0000000000000000e+00 1.3349999400000000e+01
ITEM: ATOMS id element xu yu zu
1 Ar -0.0385104 0.0288021 -0.128185
2 Ar 0.155473 -0.0797957 4.6164
3 Ar 0.15689 -0.0538215 9.17686
4 Ar -0.0384661 4.34042 0.0964983
5 Ar -0.125617 4.45648 4.31848
6 Ar 0.0300332 4.41794 8.52765
7 Ar -0.188181 8.73118 -0.0149842
8 Ar -0.0676287 9.14087 4.42994
9 Ar -0.196801 8.78947 8.9973
10 Ar 4.59916 0.0149511 -0.0892221
11 Ar 4.39608 -0.0412169 4.53279
12 Ar 4.52986 0.124193 9.00034
13 Ar 4.48435 4.47366 0.0167235
14 Ar 4.41859 4.47141 4.54209
15 Ar 4.50165 4.44485 8.94802
16 Ar 4.64255 9.09013 -0.044865
17 Ar 4.40345 8.82768 4.5553
18 Ar 4.47548 8.8533 8.98268
19 Ar 9.08361 0.114498 0.0207653
20 Ar 8.67718 -0.00408238 4.44722
21 Ar 8.89781 -0.0888277 8.64868
22 Ar 8.7534 4.46812 0.115949
23 Ar 8.92454 4.50879 4.3612
24 Ar 9.01554 4.31529 8.90989
25 Ar 9.01638 8.89874 0.0464149
26 Ar 8.98805 8.98445 4.3676
27 Ar 8.95489 8.86438 8.92443
28 Ar 0.176078 2.00213 2.06313
29 Ar 0.154763 2.18489 6.57278
30 Ar 0.0953767 2.15225 11.1398
31 Ar -0.235932 6.63781 2.23825
32 Ar 0.197752 6.77237 6.75744
33 Ar 0.0458172 6.43054 11.2368
34 Ar 0.169232 11.1475 2.03242
35 Ar 0.0180562 11.0356 7.00846
36 Ar -0.260552 10.9972 11.0595
37 Ar 4.39818 2.41246 2.35793
38 Ar 4.27538 2.44854 6.74517
39 Ar 4.50271 2.30475 11.0365
40 Ar 4.25874 6.74677 2.34427
41 Ar 4.49537 6.6776 6.71544
42 Ar 4.50261 6.90554 11.1419
43 Ar 4.41346 10.9984 2.16413
44 Ar 4.47851 11.0384 6.61055
45 Ar 4.42158 11.188 11.0193
46 Ar 8.8342 2.25374 2.26201
47 Ar 8.93961 2.21378 6.47138
48 Ar 8.82639 2.28973 11.0375
49 Ar 8.90932 6.72548 2.14443
50 Ar 8.89995 6.71396 6.70053
51 Ar 8.79698 6.50426 10.9699
52 Ar 8.73261 11.14 2.17966
53 Ar 8.73094 11.0361 6.62708
54 Ar 8.90339 11.1582 11.091
55 Ar 2.30514 -0.164392 2.01364
56 Ar 2.29195 -0.206064 6.91411
57 Ar 2.21473 -0.0403164 11.2076
58 Ar 2.05335 4.51674 2.39364
59 Ar 2.08986 4.4498 6.61817
60 Ar 2.31318 4.5185 11.1089
61 Ar 2.24833 8.94812 2.14086
62 Ar 2.0969 9.02725 6.80296
63 Ar 2.02472 8.72108 11.1697
64 Ar 6.60847 0.240882 2.31267
65 Ar 6.72387 0.0813865 6.54155
66 Ar 6.82452 0.0952945 10.9453
67 Ar 6.56602 4.56673 2.23852
68 Ar 6.84765 4.42456 6.74073
69 Ar 6.58953 4.50506 11.1427
70 Ar 6.71346 8.77169 2.384
71 Ar 6.66055 8.81033 6.7171
72 Ar 6.86343 9.02818 10.994
73 Ar 11.2223 -0.0419887 2.20449
74 Ar 11.272 -0.195058 6.88887
75 Ar 10.9529 -0.00266234 11.0318
76 Ar 11.0854 4.35758 2.38757
77 Ar 11.0095 4.59666 6.52134
78 Ar 11.2089 4.25936 10.958
79 Ar 11.2028 9.04251 2.06282
80 Ar 11.2265 8.8709 6.64372
81 Ar 10.9827 8.77888 11.2214
82 Ar 2.36886 2.39022 0.152787
83 Ar 2.09991 2.17037 4.51279
84 Ar 2.19882 2.28192 8.93205
85 Ar 2.37915 6.66101 0.00389685
86 Ar 2.27861 6.89944 4.32875
87 Ar 2.12092 6.66478 8.92198
88 Ar 2.12995 10.8556 -0.26303
89 Ar 2.36468 11.1744 4.61777
90 Ar 2.14474 10.9873 9.06073
91 Ar 6.69458 2.18136 0.189
92 Ar 6.62472 2.49012 4.42898
93 Ar 6.77281 2.22109 8.65356
94 Ar 6.81577 6.79716 -0.0487555
95 Ar 6.65043 6.59695 4.4823
96 Ar 6.51585 6.71509 8.88709
97 Ar 6.68719 11.2024 -0.115255
98 Ar 6.74807 11.1055 4.30271
99 Ar 6.68195 11.2231 9.03351
100 Ar 11.0657 2.2843 0.0266695
101 Ar 11.2106 2.03757 4.49227
102 Ar 11.1644 2.08584 8.92036
103 Ar 10.9568 6.51217 -0.121247
104 Ar 11.0457 6.73324 4.38816
105 Ar 11.257 6.75947 9.07198
106 Ar 11.1887 11.2066 0.0126062
107 Ar 11.1803 11.2071 4.59337
108 Ar 11.0747 11.1368 8.94569
ITEM: TIMESTEP
28020
ITEM: NUMBER OF ATOMS
108
ITEM: BOX BOUNDS pp pp pp
0.0000000000000000e+00 1.3349999400000000e+01
0.0000000000000000e+00 1.3349999400000000e+01
0.0000000000000000e+00 1.3349999400000000e+01
ITEM: ATOMS id element xu yu zu
1 Ar -0.0324218 0.0264844 -0.137734
2 Ar 0.156344 -0.10248 4.60696
3 Ar 0.127666 -0.0355721 9.18028
4 Ar -0.0409244 4.32027 0.0989441
5 Ar -0.102814 4.48035 4.30736
6 Ar 0.0134182 4.42121 8.53945
7 Ar -0.202188 8.72203 -0.0332669
8 Ar -0.0706278 9.13818 4.42678
9 Ar -0.190837 8.77743 8.99701
10 Ar 4.61248 0.0302342 -0.0723458
11 Ar 4.4048 -0.0378865 4.53037
12 Ar 4.536 0.132626 8.98654
13 Ar 4.50508 4.47619 0.0267397
14 Ar 4.4272 4.4717 4.53251
15 Ar 4.49026 4.43765 8.93304
16 Ar 4.64612 9.10295 -0.0340933
17 Ar 4.38303 8.8258 4.57078
18 Ar 4.46002 8.86728 8.99751
19 Ar 9.09899 0.107395 0.0198827
20 Ar 8.6707 0.0129315 4.43154
21 Ar 8.90534 -0.102981 8.64667
22 Ar 8.7547 4.44734 0.124514
23 Ar 8.92471 4.51503 4.35143
24 Ar 9.01667 4.30637 8.90354
25 Ar 9.01184 8.9077 0.052405
26 Ar 8.99482 8.97794 4.38025
27 Ar 8.93436 8.88164 8.90849
28 Ar 0.180364 2.0077 2.06347
29 Ar 0.145097 2.19567 6.58556
30 Ar 0.104299 2.15208 11.1282
31 Ar -0.23226 6.62546 2.25208
32 Ar 0.201011 6.76337 6.73912
33 Ar 0.0753395 6.43415 11.2517
34 Ar 0.154209 11.1583 2.04203
35 Ar 0.00964759 11.0345 6.99833
36 Ar -0.248816 10.9953 11.0634
37 Ar 4.40077 2.40557 2.36987
38 Ar 4.28928 2.43577 6.76091
39 Ar 4.50407 2.30487 11.0414
40 Ar 4.25976 6.74571 2.3366
41 Ar 4.49667 6.66571 6.73065
42 Ar 4.48636 6.89377 11.1539
43 Ar 4.40783 10.995 2.15892
44 Ar 4.49128 11.0306 6.64092
45 Ar 4.41627 11.1751 11.0323
46 Ar 8.83612 2.28396 2.24849
47 Ar 8.95936 2.21768 6.46313
48 Ar 8.81118 2.28117 11.0461
49 Ar 8.90272 6.74904 2.12941
50 Ar 8.8935 6.7225 6.6977
51 Ar 8.79415 6.51818 10.9653
52 Ar 8.73035 11.141 2.17602
53 Ar 8.73771 11.039 6.61523
54 Ar 8.90449 11.1656 11.0938
55 Ar 2.31105 -0.163597 1.9982
56 Ar 2.29139 -0.207361 6.90973
57 Ar 2.21889 -0.0368043 11.2164
58 Ar 2.06323 4.51547 2.3845
59 Ar 2.07961 4.45533 6.64327
60 Ar 2.31403 4.51901 11.1142
61 Ar 2.24917 8.95144 2.13462
62 Ar 2.09823 9.01963 6.81501
63 Ar 2.01416 8.73492 11.1672
64 Ar 6.63543 0.235639 2.30927
65 Ar 6.72017 0.0684158 6.5362
66 Ar 6.81949 0.0860209 10.93
67 Ar 6.56278 4.54431 2.24433
68 Ar 6.84016 4.44007 6.72879
69 Ar 6.57878 4.51362 11.1574
70 Ar 6.70899 8.78114 2.40115
71 Ar 6.66122 8.82354 6.71717
72 Ar 6.87277 9.00395 10.9783
73 Ar 11.2453 -0.0265972 2.19834
74 Ar 11.2594 -0.171461 6.89486
75 Ar 10.9526 0.00828528 11.0223
76 Ar 11.0709 4.35644 2.38676
77 Ar 10.9998 4.57917 6.52727
78 Ar 11.1994 4.2497 10.9401
79 Ar 11.2178 9.03657 2.04771
80 Ar 11.2296 8.87318 6.65521
81 Ar 10.9879 8.78266 11.2391
82 Ar 2.37514 2.38728 0.135674
83 Ar 2.08241 2.18147 4.52142
84 Ar 2.21207 2.28479 8.92907
85 Ar 2.3715 6.65577 -0.00421412
86 Ar 2.25552 6.91132 4.33411
87 Ar 2.1029 6.67624 8.93473
88 Ar 2.13267 10.8473 -0.267218
89 Ar 2.36258 11.1936 4.63571
90 Ar 2.14999 10.9927 9.04267
91 Ar 6.68014 2.18402 0.207286
92 Ar 6.62737 2.48509 4.4214
93 Ar 6.77421 2.19796 8.64133
94 Ar 6.81056 6.80322 -0.0634096
95 Ar 6.65972 6.59512 4.47252
96 Ar 6.52088 6.71056 8.89379
97 Ar 6.68581 11.1952 -0.132507
98 Ar 6.72906 11.1052 4.29623
99 Ar 6.70327 11.2302 9.02783
100 Ar 11.0617 2.26524 0.0363005
101 Ar 11.2383 2.04142 4.47752
102 Ar 11.1789 2.07797 8.94274
103 Ar 10.9735 6.48837 -0.131499
104 Ar 11.0534 6.74182 4.4072
105 Ar 11.2505 6.74064 9.08873
106 Ar 11.1748 11.196 0.0271309
107 Ar 11.1823 11.2002 4.59354
108 Ar 11.0532 11.1439 8.92452
ITEM: TIMESTEP
28030
ITEM: NUMBER OF ATOMS
108
ITEM: BOX BOUNDS pp pp pp
0.0000000000000000e+00 1.3349999400000000e+01
0.0000000000000000e+00 1.3349999400000000e+01
0.0000000000000000e+00 1.3349999400000000e+01
ITEM: ATOMS id element xu yu zu
1 Ar -0.0261935 0.0230145 -0.147657
2 Ar 0.156138 -0.126427 4.59575
3 Ar 0.0969362 -0.0174163 9.18001
4 Ar -0.043146 4.3015 0.100677
5 Ar -0.0794254 4.50345 4.30055
6 Ar -0.00659243 4.42402 8.55724
7 Ar -0.21294 8.71296 -0.0520795
8 Ar -0.0714245 9.13341 4.42295
9 Ar -0.182162 8.76746 8.99773
10 Ar 4.62387 0.0453506 -0.055451
11 Ar 4.41411 -0.0322321 4.52682
12 Ar 4.54066 0.13946 8.97052
13 Ar 4.52601 4.47998 0.036813
14 Ar 4.43381 4.47387 4.52337
15 Ar 4.47819 4.43227 8.91752
16 Ar 4.64851 9.11179 -0.0241979
17 Ar 4.36471 8.82619 4.58545
18 Ar 4.44326 8.88326 9.01045
19 Ar 9.11015 0.0986824 0.0192705
20 Ar 8.66978 0.0297586 4.41471
21 Ar 8.9123 -0.11467 8.64657
22 Ar 8.75728 4.42581 0.130732
23 Ar 8.92364 4.52133 4.34256
24 Ar 9.01684 4.29945 8.89523
25 Ar 9.00461 8.91793 0.057375
26 Ar 9.00162 8.97044 4.39356
27 Ar 8.91474 8.89886 8.89091
28 Ar 0.182403 2.01453 2.06725
29 Ar 0.131487 2.20458 6.60111
30 Ar 0.112608 2.15522 11.1177
31 Ar -0.226168 6.61512 2.2642
32 Ar 0.200082 6.75444 6.71649
33 Ar 0.102579 6.43808 11.2659
34 Ar 0.138041 11.1689 2.05375
35 Ar 0.000640098 11.0352 6.98534
36 Ar -0.235246 10.9939 11.069
37 Ar 4.40198 2.39613 2.3812
38 Ar 4.30503 2.41947 6.77465
39 Ar 4.50563 2.30369 11.0485
40 Ar 4.26552 6.74349 2.32584
41 Ar 4.49504 6.6531 6.74534
42 Ar 4.47017 6.87971 11.1668
43 Ar 4.40389 10.9942 2.15534
44 Ar 4.50647 11.0238 6.67437
45 Ar 4.41175 11.1617 11.0462
46 Ar 8.84019 2.31307 2.23655
47 Ar 8.9806 2.22146 6.45658
48 Ar 8.7961 2.27247 11.0566
49 Ar 8.89734 6.7715 2.11664
50 Ar 8.8874 6.73141 6.69548
51 Ar 8.79279 6.5327 10.9616
52 Ar 8.731 11.1432 2.17132
53 Ar 8.74618 11.042 6.60365
54 Ar 8.90699 11.1729 11.0981
55 Ar 2.3182 -0.161591 1.9841
56 Ar 2.2907 -0.205671 6.90519
57 Ar 2.22556 -0.0326453 11.2258
58 Ar 2.07539 4.51431 2.37376
59 Ar 2.07353 4.46294 6.66555
60 Ar 2.31462 4.51796 11.1199
61 Ar 2.24789 8.9546 2.12845
62 Ar 2.10247 9.00988 6.82583
63 Ar 2.0053 8.74899 11.163
64 Ar 6.66055 0.226189 2.30568
65 Ar 6.7128 0.0545682 6.53221
66 Ar 6.81384 0.0777155 10.9185
67 Ar 6.5603 4.52356 2.2494
68 Ar 6.83116 4.45714 6.71644
69 Ar 6.56907 4.52084 11.1717
70 Ar 6.70272 8.79123 2.41564
71 Ar 6.66216 8.83815 6.71644
72 Ar 6.87989 8.97803 10.9655
73 Ar 11.267 -0.0116388 2.19433
74 Ar 11.2471 -0.144741 6.897
75 Ar 10.954 0.0196818 11.0143
76 Ar 11.0566 4.35498 2.38241
77 Ar 10.9926 4.56023 6.5349
78 Ar 11.1903 4.2418 10.925
79 Ar 11.2306 9.03001 2.03725
80 Ar 11.2304 8.87504 6.66727
81 Ar 10.9933 8.78757 11.2554
82 Ar 2.38143 2.38244 0.11557
83 Ar 2.06859 2.19225 4.52736
84 Ar 2.22509 2.28685 8.92649
85 Ar 2.36183 6.65074 -0.0107908
86 Ar 2.22777 6.92049 4.34339
87 Ar 2.08812 6.68727 8.94773
88 Ar 2.13575 10.8424 -0.26947
89 Ar 2.35778 11.2105 4.65001
90 Ar 2.15689 10.9986 9.02623
91 Ar 6.66524 2.18834 0.220794
92 Ar 6.63002 2.47723 4.41557
93 Ar 6.77504 2.17547 8.63179
94 Ar 6.8026 6.80919 -0.0775044
95 Ar 6.66953 6.59434 4.4634
96 Ar 6.52917 6.70458 8.90085
97 Ar 6.68634 11.1891 -0.14837
98 Ar 6.7065 11.1046 4.29205
99 Ar 6.72314 11.2356 9.01783
100 Ar 11.0588 2.24722 0.0450572
101 Ar 11.2656 2.04529 4.46244
102 Ar 11.1936 2.07136 8.96173
103 Ar 10.9913 6.46366 -0.140939
104 Ar 11.0619 6.7516 4.42667
105 Ar 11.2411 6.71771 9.10257
106 Ar 11.1595 11.1855 0.0403692
107 Ar 11.1825 11.1945 4.59157
108 Ar 11.0309 11.1482 8.90376
ITEM: TIMESTEP
28040
ITEM: NUMBER OF ATOMS
108
ITEM: BOX BOUNDS pp pp pp
0.0000000000000000e+00 1.3349999400000000e+01
0.0000000000000000e+00 1.3349999400000000e+01
0.0000000000000000e+00 1.3349999400000000e+01
ITEM: ATOMS id element xu yu zu
1 Ar -0.0199988 0.0184338 -0.157799
2 Ar 0.154835 -0.150924 4.5831
3 Ar 0.0656322 -4.46558e-05 9.17608
4 Ar -0.0451611 4.28426 0.101609
5 Ar -0.0559757 4.52537 4.29821
6 Ar -0.029527 4.42648 8.58072
7 Ar -0.220064 8.70412 -0.0708987
8 Ar -0.0700254 9.12674 4.41853
9 Ar -0.171422 8.75955 8.99937
10 Ar 4.63329 0.0599116 -0.0387952
11 Ar 4.4238 -0.0244084 4.52217
12 Ar 4.5437 0.14433 8.95273
13 Ar 4.54654 4.48495 0.0469323
14 Ar 4.43815 4.47786 4.51505
15 Ar 4.46577 4.42879 8.90199
16 Ar 4.64973 9.11626 -0.0153824
17 Ar 4.34856 8.8287 4.59922
18 Ar 4.42571 8.90051 9.02157
19 Ar 9.11679 0.0884726 0.0190176
20 Ar 8.67448 0.0461401 4.39711
21 Ar 8.91842 -0.123432 8.64831
22 Ar 8.76099 4.40432 0.134274
23 Ar 8.9214 4.52781 4.33483
24 Ar 9.01573 4.29441 8.88518
25 Ar 8.99476 8.92919 0.061157
26 Ar 9.00827 8.96218 4.40719
27 Ar 8.8966 8.91576 8.87196
28 Ar 0.18255 2.02247 2.07424
29 Ar 0.114207 2.21147 6.61905
30 Ar 0.120316 2.1618 11.1086
31 Ar -0.217858 6.60708 2.2741
32 Ar 0.194836 6.74569 6.69023
33 Ar 0.12684 6.44206 11.279
34 Ar 0.121174 11.1791 2.06725
35 Ar -0.00884671 11.0378 6.96984
36 Ar -0.220401 10.9933 11.0758
37 Ar 4.40156 2.38407 2.39175
38 Ar 4.32227 2.40005 6.78572
39 Ar 4.50749 2.30126 11.0576
40 Ar 4.27554 6.74037 2.31255
41 Ar 4.4906 6.64014 6.75929
42 Ar 4.45419 6.86378 11.1804
43 Ar 4.40158 10.9963 2.15358
44 Ar 4.52353 11.0182 6.71027
45 Ar 4.40821 11.1484 11.0606
46 Ar 8.84623 2.34027 2.22646
47 Ar 9.00283 2.22499 6.45172
48 Ar 8.78119 2.26386 11.0686
49 Ar 8.89332 6.79246 2.10617
50 Ar 8.88184 6.74046 6.69397
51 Ar 8.79302 6.54745 10.9591
52 Ar 8.73447 11.1466 2.16593
53 Ar 8.75623 11.0451 6.59209
54 Ar 8.91085 11.1802 11.1038
55 Ar 2.32634 -0.158434 1.97148
56 Ar 2.28977 -0.200822 6.90062
57 Ar 2.23466 -0.0279888 11.2356
58 Ar 2.0899 4.51322 2.36138
59 Ar 2.07187 4.47225 6.68491
60 Ar 2.31516 4.51516 11.1256
61 Ar 2.24441 8.95751 2.12245
62 Ar 2.10939 8.99823 6.83527
63 Ar 1.99842 8.76319 11.1573
64 Ar 6.6836 0.212696 2.30169
65 Ar 6.70229 0.0399726 6.52943
66 Ar 6.8075 0.0704483 10.911
67 Ar 6.55874 4.50499 2.25371
68 Ar 6.82089 4.47515 6.70393
69 Ar 6.56063 4.52661 11.1851
70 Ar 6.6947 8.80183 2.42731
71 Ar 6.66315 8.85369 6.7149
72 Ar 6.88456 8.9511 10.9558
73 Ar 11.2869 0.00263763 2.19247
74 Ar 11.2353 -0.115279 6.89489
75 Ar 10.957 0.0310193 11.0082
76 Ar 11.0432 4.35357 2.37479
77 Ar 10.9881 4.54023 6.54391
78 Ar 11.182 4.23569 10.9132
79 Ar 11.2412 9.02265 2.03171
80 Ar 11.2291 8.87637 6.67991
81 Ar 10.9984 8.7935 11.2698
82 Ar 2.38774 2.37585 0.0929199
83 Ar 2.05848 2.20254 4.53085
84 Ar 2.23755 2.28801 8.92438
85 Ar 2.35034 6.64601 -0.0154996
86 Ar 2.19625 6.92682 4.35592
87 Ar 2.07667 6.69759 8.96067
88 Ar 2.13894 10.8412 -0.269433
89 Ar 2.35082 11.2248 4.6607
90 Ar 2.16509 11.0054 9.01164
91 Ar 6.6502 2.1942 0.229349
92 Ar 6.63279 2.46661 4.41182
93 Ar 6.77564 2.15423 8.62479
94 Ar 6.79219 6.81497 -0.0906364
95 Ar 6.67959 6.59477 4.45501
96 Ar 6.54023 6.69729 8.9081
97 Ar 6.6888 11.1842 -0.162736
98 Ar 6.68094 11.1039 4.29027
99 Ar 6.74113 11.2389 9.00391
100 Ar 11.0571 2.23058 0.0526276
101 Ar 11.2923 2.04928 4.44713
102 Ar 11.2082 2.06629 8.97698
103 Ar 11.0098 6.43822 -0.149499
104 Ar 11.0713 6.76221 4.44631
105 Ar 11.229 6.69157 9.11349
106 Ar 11.1433 11.1753 0.051997
107 Ar 11.1809 11.1902 4.58751
108 Ar 11.0088 11.1494 8.88392
ITEM: TIMESTEP
28050
ITEM: NUMBER OF ATOMS
108
ITEM: BOX BOUNDS pp pp pp
0.0000000000000000e+00 1.3349999400000000e+01
0.0000000000000000e+00 1.3349999400000000e+01
0.0000000000000000e+00 1.3349999400000000e+01
ITEM: ATOMS id element xu yu zu
1 Ar -0.0139985 0.0128351 -0.167966
2 Ar 0.152436 -0.175225 4.56931
3 Ar 0.0347007 0.0158731 9.16861
4 Ar -0.0469532 4.26864 0.101686
5 Ar -0.0329471 4.54567 4.30037
6 Ar -0.0546795 4.42873 8.60941
7 Ar -0.223325 8.69572 -0.0891495
8 Ar -0.0665329 9.11841 4.41367
9 Ar -0.159325 8.75362 9.00176
10 Ar 4.64077 0.0735154 -0.0226137
11 Ar 4.43359 -0.0146406 4.5165
12 Ar 4.54502 0.146921 8.9337
13 Ar 4.56607 4.49098 0.0570794
14 Ar 4.44008 4.48358 4.50784
15 Ar 4.45334 4.42723 8.88693
16 Ar 4.64978 9.11614 -0.00777128
17 Ar 4.33458 8.83307 4.61197
18 Ar 4.40791 8.91825 9.03102
19 Ar 9.11874 0.0769497 0.0192041
20 Ar 8.68474 0.0618177 4.37921
21 Ar 8.92345 -0.128875 8.65185
22 Ar 8.76569 4.38368 0.134819
23 Ar 8.91812 4.53452 4.32848
24 Ar 9.01305 4.29107 8.87368
25 Ar 8.98243 8.94121 0.0636163
26 Ar 9.01455 8.95342 4.42077
27 Ar 8.88037 8.93207 8.85202
28 Ar 0.181211 2.03141 2.08415
29 Ar 0.0937195 2.21628 6.63896
30 Ar 0.127456 2.1718 11.1012
31 Ar -0.207577 6.60152 2.28136
32 Ar 0.185215 6.7372 6.66117
33 Ar 0.147513 6.4458 11.2909
34 Ar 0.104026 11.1887 2.08217
35 Ar -0.0186432 11.0421 6.95221
36 Ar -0.204797 10.9937 11.0834
37 Ar 4.39934 2.36941 2.40136
38 Ar 4.34067 2.37797 6.79351
39 Ar 4.50977 2.29766 11.0683
40 Ar 4.28927 6.73662 2.29734
41 Ar 4.48355 6.62729 6.77231
42 Ar 4.43853 6.8464 11.1941
43 Ar 4.40083 11.0012 2.15372
44 Ar 4.54181 11.0141 6.74789
45 Ar 4.4058 11.1355 11.0751
46 Ar 8.85393 2.36474 2.2185
47 Ar 9.02551 2.22811 6.44851
48 Ar 8.76653 2.25556 11.0819
49 Ar 8.89076 6.81151 2.09795
50 Ar 8.87697 6.7494 6.69321
51 Ar 8.79496 6.56206 10.9579
52 Ar 8.74058 11.1508 2.16031
53 Ar 8.76769 11.0486 6.58031
54 Ar 8.91601 11.1869 11.1107
55 Ar 2.33517 -0.154189 1.96047
56 Ar 2.28849 -0.192728 6.8961
57 Ar 2.24602 -0.0229651 11.245
58 Ar 2.10671 4.5122 2.34737
59 Ar 2.07458 4.48281 6.70144
60 Ar 2.31583 4.51049 11.1313
61 Ar 2.23871 8.96006 2.11673
62 Ar 2.11868 8.98492 6.84319
63 Ar 1.99379 8.77743 11.1502
64 Ar 6.70439 0.195461 2.29707
65 Ar 6.68928 0.0247685 6.52765
66 Ar 6.80037 0.0641904 10.9077
67 Ar 6.55826 4.48901 2.25729
68 Ar 6.8096 4.4935 6.69151
69 Ar 6.55365 4.53085 11.1972
70 Ar 6.68501 8.81283 2.43608
71 Ar 6.66398 8.86966 6.71256
72 Ar 6.88663 8.9239 10.9492
73 Ar 11.3047 0.0159853 2.19268
74 Ar 11.2242 -0.0835749 6.88825
75 Ar 10.9615 0.0418294 11.0043
76 Ar 11.0313 4.35262 2.36425
77 Ar 10.9864 4.51957 6.55391
78 Ar 11.1743 4.23133 10.9053
79 Ar 11.2492 9.0143 2.03114
80 Ar 11.2258 8.87708 6.6931
81 Ar 11.0031 8.8003 11.2815
82 Ar 2.39404 2.36771 0.068243
83 Ar 2.05193 2.21221 4.53223
84 Ar 2.24913 2.28819 8.9228
85 Ar 2.33727 6.64169 -0.0180309
86 Ar 2.16208 6.93028 4.37094
87 Ar 2.06855 6.7069 8.9732
88 Ar 2.14208 10.8436 -0.266817
89 Ar 2.34233 11.236 4.66788
90 Ar 2.17417 11.0132 8.99905
91 Ar 6.63534 2.2014 0.232971
92 Ar 6.63575 2.45333 4.41037
93 Ar 6.77632 2.13482 8.62022
94 Ar 6.77967 6.82046 -0.102415
95 Ar 6.68961 6.59657 4.44739
96 Ar 6.5535 6.68886 8.91532
97 Ar 6.6931 11.1806 -0.175498
98 Ar 6.65304 11.1031 4.29092
99 Ar 6.75691 11.24 8.98661
100 Ar 11.0569 2.21556 0.0587327
101 Ar 11.3183 2.05353 4.43176
102 Ar 11.2219 2.0631 8.98823
103 Ar 11.0284 6.41233 -0.157114
104 Ar 11.0814 6.77322 4.46582
105 Ar 11.2147 6.66323 9.12147
106 Ar 11.1266 11.1658 0.0617841
107 Ar 11.1774 11.1874 4.58144
108 Ar 10.9874 11.1475 8.86537
ITEM: TIMESTEP
28060
ITEM: NUMBER OF ATOMS
108
ITEM: BOX BOUNDS pp pp pp
0.0000000000000000e+00 1.3349999400000000e+01
0.0000000000000000e+00 1.3349999400000000e+01
0.0000000000000000e+00 1.3349999400000000e+01
ITEM: ATOMS id element xu yu zu
1 Ar -0.00833482 0.00635669 -0.17794
2 Ar 0.148961 -0.198575 4.55471
3 Ar 0.00506239 0.0297194 9.15782
4 Ar -0.0484569 4.25474 0.100892
5 Ar -0.0107635 4.56392 4.30689
6 Ar -0.0811521 4.43094 8.64261
7 Ar -0.222639 8.68797 -0.106228
8 Ar -0.0611377 9.10873 4.40851
9 Ar -0.146591 8.74954 9.00471
10 Ar 4.64635 0.0857613 -0.00711934
11 Ar 4.44313 -0.00321172 4.50987
12 Ar 4.54459 0.146974 8.91403
13 Ar 4.58399 4.49791 0.0672216
14 Ar 4.43954 4.49086 4.50195
15 Ar 4.44122 4.42748 8.87281
16 Ar 4.64864 9.11137 -0.00140994
17 Ar 4.32266 8.83899 4.62357
18 Ar 4.39041 8.93568 9.03896
19 Ar 9.11595 0.0643771 0.0198958
20 Ar 8.70037 0.0765487 4.36147
21 Ar 8.92722 -0.130704 8.65709
22 Ar 8.7712 4.36464 0.132079
23 Ar 8.91399 4.54152 4.32372
24 Ar 9.00856 4.28925 8.86109
25 Ar 8.96782 8.95369 0.0646595
26 Ar 9.02023 8.94442 4.43394
27 Ar 8.86635 8.94751 8.83148
28 Ar 0.178816 2.04121 2.09659
29 Ar 0.0706426 2.21913 6.66036
30 Ar 0.134072 2.18502 11.0956
31 Ar -0.195597 6.59856 2.28561
32 Ar 0.171226 6.72901 6.63037
33 Ar 0.1641 6.4491 11.3013
34 Ar 0.0869813 11.1976 2.09814
35 Ar -0.0285481 11.0481 6.93289
36 Ar -0.188903 10.9953 11.0913
37 Ar 4.39528 2.35228 2.40987
38 Ar 4.35988 2.35374 6.79758
39 Ar 4.51258 2.29297 11.0804
40 Ar 4.3061 6.73257 2.28083
41 Ar 4.47414 6.61503 6.78422
42 Ar 4.42331 6.82798 11.2073
43 Ar 4.4015 11.0089 2.15571
44 Ar 4.56058 11.0117 6.78647
45 Ar 4.40469 11.1235 11.0894
46 Ar 8.86291 2.38567 2.21286
47 Ar 9.04806 2.23067 6.44688
48 Ar 8.75227 2.24777 11.0963
49 Ar 8.8897 6.82836 2.09191
50 Ar 8.87293 6.75796 6.69324
51 Ar 8.79869 6.57617 10.9581
52 Ar 8.74911 11.1558 2.15496
53 Ar 8.78039 11.0528 6.56809
54 Ar 8.92231 11.1931 11.1187
55 Ar 2.34432 -0.14892 1.9512
56 Ar 2.28675 -0.181395 6.89162
57 Ar 2.25943 -0.0176894 11.2537
58 Ar 2.12568 4.51121 2.33182
59 Ar 2.08134 4.49415 6.71534
60 Ar 2.31676 4.5039 11.1369
61 Ar 2.23092 8.96214 2.11144
62 Ar 2.12998 8.97028 6.84953
63 Ar 1.99168 8.79163 11.1418
64 Ar 6.72277 0.174904 2.29155
65 Ar 6.67449 0.00911065 6.52665
66 Ar 6.79234 0.0588204 10.9085
67 Ar 6.559 4.4759 2.26021
68 Ar 6.7975 4.51161 6.67938
69 Ar 6.54832 4.53349 11.2076
70 Ar 6.67386 8.82412 2.44191
71 Ar 6.66446 8.88557 6.7094
72 Ar 6.88597 8.8972 10.9457
73 Ar 11.3202 0.0281687 2.19479
74 Ar 11.214 -0.0502434 6.87697
75 Ar 10.9674 0.0517098 11.003
76 Ar 11.0216 4.35257 2.35121
77 Ar 10.9874 4.4987 6.56452
78 Ar 11.1671 4.22858 10.9018
79 Ar 11.2548 9.00484 2.03541
80 Ar 11.2207 8.87714 6.70679
81 Ar 11.0069 8.80777 11.2901
82 Ar 2.40025 2.35823 0.0421202
83 Ar 2.04872 2.22112 4.53196
84 Ar 2.25956 2.28734 8.92176
85 Ar 2.32287 6.63786 -0.0181198
86 Ar 2.12652 6.93094 4.38762
87 Ar 2.06367 6.71486 8.98495
88 Ar 2.14502 10.8497 -0.261409
89 Ar 2.33298 11.2438 4.67172
90 Ar 2.1837 11.0225 8.98849
91 Ar 6.62101 2.20969 0.231854
92 Ar 6.63896 2.43759 4.41137
93 Ar 6.7774 2.11775 8.61794
94 Ar 6.76545 6.82554 -0.112475
95 Ar 6.69931 6.59989 4.44057
96 Ar 6.56843 6.67942 8.92227
97 Ar 6.69905 11.1782 -0.186547
98 Ar 6.62351 11.1025 4.29401
99 Ar 6.77026 11.2388 8.96659
100 Ar 11.0583 2.2023 0.063136
101 Ar 11.3435 2.05822 4.41646
102 Ar 11.2343 2.06211 8.99536
103 Ar 11.0468 6.38632 -0.163726
104 Ar 11.0922 6.7842 4.48493
105 Ar 11.1987 6.63376 9.12649
106 Ar 11.1098 11.1572 0.0695962
107 Ar 11.172 11.186 4.57344
108 Ar 10.9676 11.1425 8.84842
ITEM: TIMESTEP
28070
ITEM: NUMBER OF ATOMS
108
ITEM: BOX BOUNDS pp pp pp
0.0000000000000000e+00 1.3349999400000000e+01
0.0000000000000000e+00 1.3349999400000000e+01
0.0000000000000000e+00 1.3349999400000000e+01
ITEM: ATOMS id element xu yu zu
1 Ar -0.00312449 -0.000824205 -0.187483
2 Ar 0.144452 -0.220235 4.5396
3 Ar -0.0224288 0.0409565 9.14398
4 Ar -0.0495592 4.24257 0.0992543
5 Ar 0.0102165 4.5797 4.31748
6 Ar -0.107917 4.43325 8.67949
7 Ar -0.218076 8.6811 -0.121537
8 Ar -0.0541049 9.09807 4.40324
9 Ar -0.133903 8.74715 9.00798
10 Ar 4.65012 0.0962655 0.00749819
11 Ar 4.45207 0.0095489 4.5024
12 Ar 4.54242 0.144308 8.89436
13 Ar 4.59973 4.50558 0.077303
14 Ar 4.43659 4.49953 4.49746
15 Ar 4.42969 4.42934 8.86007
16 Ar 4.64629 9.10211 0.00372704
17 Ar 4.31266 8.8461 4.63389
18 Ar 4.37373 8.952 9.04559
19 Ar 9.10851 0.0510965 0.0211395
20 Ar 8.72109 0.0901189 4.34438
21 Ar 8.92965 -0.128742 8.66392
22 Ar 8.77736 4.34787 0.125831
23 Ar 8.90927 4.54882 4.32072
24 Ar 9.00207 4.28874 8.84779
25 Ar 8.95113 8.96632 0.0642408
26 Ar 9.02506 8.93541 4.44637
27 Ar 8.85469 8.96183 8.81082
28 Ar 0.175805 2.05176 2.11113
29 Ar 0.0457201 2.22024 6.68274
30 Ar 0.140197 2.20115 11.0919
31 Ar -0.182202 6.59816 2.2866
32 Ar 0.15293 6.72116 6.59902
33 Ar 0.176238 6.45175 11.3098
34 Ar 0.0703797 11.2055 2.11471
35 Ar -0.0383483 11.0555 6.91228
36 Ar -0.173131 10.9982 11.0992
37 Ar 4.38947 2.33291 2.41715
38 Ar 4.37959 2.32793 6.79761
39 Ar 4.51602 2.2873 11.0933
40 Ar 4.32543 6.72856 2.2636
41 Ar 4.46266 6.60389 6.79488
42 Ar 4.40861 6.8089 11.2198
43 Ar 4.40342 11.0192 2.15943
44 Ar 4.57907 11.0112 6.82519
45 Ar 4.40501 11.1126 11.1034
46 Ar 8.87272 2.40232 2.20971
47 Ar 9.06989 2.23255 6.44669
48 Ar 8.73854 2.24065 11.1114
49 Ar 8.89014 6.84274 2.0879
50 Ar 8.86983 6.76588 6.69407
51 Ar 8.80428 6.58947 10.9598
52 Ar 8.75981 11.1612 2.15039
53 Ar 8.79412 11.0579 6.55526
54 Ar 8.92957 11.1984 11.1273
55 Ar 2.35339 -0.142694 1.94378
56 Ar 2.28442 -0.166926 6.88708
57 Ar 2.27464 -0.0122695 11.2612
58 Ar 2.14657 4.51022 2.31485
59 Ar 2.09162 4.50582 6.7269
60 Ar 2.31806 4.49541 11.1422
61 Ar 2.22122 8.96364 2.10674
62 Ar 2.14285 8.95461 6.85426
63 Ar 1.9923 8.80574 11.1326
64 Ar 6.73864 0.15153 2.28489
65 Ar 6.65868 -0.00682726 6.52619
66 Ar 6.78331 0.0541429 10.9133
67 Ar 6.56104 4.46577 2.26264
68 Ar 6.78479 4.52893 6.6677
69 Ar 6.54482 4.5345 11.2159
70 Ar 6.66149 8.83562 2.44479
71 Ar 6.66445 8.90089 6.7054
72 Ar 6.88255 8.87175 10.945
73 Ar 11.3329 0.0389747 2.19855
74 Ar 11.2048 -0.0160038 6.86107
75 Ar 10.9744 0.0603482 11.0045
76 Ar 11.0146 4.35381 2.33614
77 Ar 10.9913 4.47808 6.57536
78 Ar 11.1601 4.22723 10.903
79 Ar 11.258 8.99419 2.04419
80 Ar 11.2141 8.87655 6.7209
81 Ar 11.0097 8.81571 11.2953
82 Ar 2.40622 2.34764 0.0151809
83 Ar 2.04853 2.22913 4.53051
84 Ar 2.26862 2.28545 8.92124
85 Ar 2.30741 6.63461 -0.0155699
86 Ar 2.09092 6.92895 4.40511
87 Ar 2.06192 6.72116 8.99557
88 Ar 2.14768 10.8593 -0.253086
89 Ar 2.32345 11.248 4.67246
90 Ar 2.19322 11.0335 8.97993
91 Ar 6.60757 2.2188 0.226344
92 Ar 6.64244 2.41967 4.41485
93 Ar 6.77912 2.10343 8.61783
94 Ar 6.74996 6.83007 -0.120483
95 Ar 6.70842 6.60485 4.43455
96 Ar 6.58447 6.66912 8.9287
97 Ar 6.70637 11.177 -0.195771
98 Ar 6.59307 11.1021 4.29952
99 Ar 6.78113 11.2353 8.94464
100 Ar 11.0614 2.19083 0.0656546
101 Ar 11.3676 2.06355 4.40142
102 Ar 11.2447 2.06365 8.99842
103 Ar 11.0648 6.36059 -0.169285
104 Ar 11.1033 6.79469 4.50333
105 Ar 11.1813 6.60424 9.12852
106 Ar 11.0936 11.1498 0.0753902
107 Ar 11.1647 11.1858 4.5636
108 Ar 10.9498 11.1347 8.83324
ITEM: TIMESTEP
28080
ITEM: NUMBER OF ATOMS
108
ITEM: BOX BOUNDS pp pp pp
0.0000000000000000e+00 1.3349999400000000e+01
0.0000000000000000e+00 1.3349999400000000e+01
0.0000000000000000e+00 1.3349999400000000e+01
ITEM: ATOMS id element xu yu zu
1 Ar 0.0015467 -0.00849787 -0.196354
2 Ar 0.138987 -0.239506 4.52429
3 Ar -0.0470305 0.0491506 9.12745
4 Ar -0.0501038 4.23216 0.0968428
5 Ar 0.0296968 4.59261 4.33168
6 Ar -0.133886 4.43579 8.71915
7 Ar -0.209863 8.67537 -0.134535
8 Ar -0.0457566 9.08686 4.39805
9 Ar -0.121867 8.74629 9.01132
10 Ar 4.65219 0.104678 0.0210724
11 Ar 4.46005 0.023273 4.49418
12 Ar 4.53862 0.138831 8.87535
13 Ar 4.61279 4.51377 0.0872383
14 Ar 4.43135 4.50934 4.49437
15 Ar 4.41906 4.43253 8.84905
16 Ar 4.64268 9.08869 0.00772053
17 Ar 4.30439 8.85404 4.64278
18 Ar 4.3584 8.96649 9.05115
19 Ar 9.09661 0.0375177 0.022959
20 Ar 8.74653 0.102351 4.32832
21 Ar 8.93074 -0.122955 8.67223
22 Ar 8.78398 4.33392 0.115965
23 Ar 8.90425 4.55639 4.3196
24 Ar 8.99349 4.28934 8.83415
25 Ar 8.93265 8.97877 0.0623662
26 Ar 9.02881 8.92661 4.45775
27 Ar 8.84543 8.97476 8.79058
28 Ar 0.172604 2.06296 2.1273
29 Ar 0.0197837 2.21991 6.70561
30 Ar 0.145837 2.21969 11.09
31 Ar -0.167668 6.6002 2.28422
32 Ar 0.130447 6.71369 6.56842
33 Ar 0.183715 6.45362 11.3161
34 Ar 0.0545119 11.2123 2.13144
35 Ar -0.0478368 11.0642 6.8908
36 Ar -0.157837 11.0026 11.1067
37 Ar 4.38208 2.31165 2.42307
38 Ar 4.39945 2.30117 6.79344
39 Ar 4.52021 2.2808 11.1065
40 Ar 4.34666 6.72491 2.24619