ITEM: TIMESTEP
68000
ITEM: NUMBER OF ATOMS
108
ITEM: BOX BOUNDS pp pp pp
0.0000000000000000e+00 1.3349999400000000e+01
0.0000000000000000e+00 1.3349999400000000e+01
0.0000000000000000e+00 1.3349999400000000e+01
ITEM: ATOMS id element xu yu zu
1 Ar -0.008933 -0.0250481 0.128765
2 Ar -0.0942663 -0.125375 4.76557
3 Ar 0.095303 0.0604442 9.03974
4 Ar -0.168622 4.44352 0.0715811
5 Ar -0.0774005 4.5712 4.48406
6 Ar 0.0777498 4.36731 8.78499
7 Ar -0.0871977 8.92076 0.0384472
8 Ar 0.232364 8.63645 4.54964
9 Ar 0.244193 8.8111 8.88834
10 Ar 4.41641 -0.106215 0.0410188
11 Ar 4.31653 0.0993139 4.47815
12 Ar 4.41097 0.0502973 9.07395
13 Ar 4.34177 4.42438 -0.123875
14 Ar 4.41247 4.48265 4.2638
15 Ar 4.47313 4.34583 8.83852
16 Ar 4.49557 8.92056 -0.333756
17 Ar 4.58988 8.88041 4.29179
18 Ar 4.50622 8.87255 8.94062
19 Ar 8.91582 0.0253828 0.0728704
20 Ar 8.85975 -0.0451114 4.58788
21 Ar 9.02439 -0.0606302 8.70976
22 Ar 8.83837 4.34908 0.0309348
23 Ar 8.78588 4.60057 4.31754
24 Ar 8.87576 4.58401 8.97985
25 Ar 8.93316 8.87952 -0.0239557
26 Ar 8.82816 9.00453 4.48901
27 Ar 8.92442 8.70739 8.90326
28 Ar 0.0493911 2.25992 2.50159
29 Ar -0.185372 2.4095 6.58662
30 Ar -0.0215942 2.42054 11.1674
31 Ar -0.147699 6.66121 2.24603
32 Ar -0.082219 6.60863 6.86261
33 Ar -0.143412 6.58576 11.0466
34 Ar -0.0367115 11.0935 2.27835
35 Ar 0.0563783 10.9338 6.46662
36 Ar 0.122352 11.2443 11.2367
37 Ar 4.23275 2.2453 2.24417
38 Ar 4.48991 2.35674 6.58841
39 Ar 4.54555 2.10704 11.1154
40 Ar 4.27212 6.56948 2.06485
41 Ar 4.44291 6.57975 6.91594
42 Ar 4.45062 6.67572 11.0369
43 Ar 4.58488 11.0703 2.10553
44 Ar 4.46321 11.021 6.68609
45 Ar 4.55726 11.2405 11.0379
46 Ar 8.85747 2.41692 2.16958
47 Ar 8.75381 2.50992 6.61693
48 Ar 9.04798 2.12469 11.0706
49 Ar 8.93689 6.74918 2.33725
50 Ar 8.80501 6.72284 6.60007
51 Ar 9.00834 6.4235 11.3047
52 Ar 8.94685 11.0983 2.20831
53 Ar 8.84457 11.0874 6.87715
54 Ar 8.97373 11.0964 10.7452
55 Ar 2.23311 -0.0032082 2.09027
56 Ar 2.15668 -0.269936 6.69538
57 Ar 2.06436 0.361683 11.1195
58 Ar 2.07692 4.52866 2.38856
59 Ar 2.26521 4.54577 6.53504
60 Ar 2.09119 4.37281 11.1073
61 Ar 2.42284 9.08775 2.20791
62 Ar 2.38568 8.91633 6.68217
63 Ar 2.16052 8.87249 11.1417
64 Ar 6.72089 -0.0109069 2.4002
65 Ar 6.49884 0.0520421 6.55517
66 Ar 6.90879 0.0933178 11.0654
67 Ar 6.60608 4.49441 2.07564
68 Ar 6.55338 4.44505 6.77413
69 Ar 6.80112 4.26064 11.0191
70 Ar 6.69221 8.76437 1.9947
71 Ar 6.51882 8.84321 6.61974
72 Ar 6.86162 9.00225 10.9564
73 Ar 10.9961 -0.00802251 2.42651
74 Ar 11.159 0.012798 6.87774
75 Ar 11.0941 -0.167906 11.0276
76 Ar 11.1761 4.46833 2.4114
77 Ar 10.9676 4.54478 6.82522
78 Ar 11.0809 4.41489 11.2176
79 Ar 11.0976 8.94081 2.24771
80 Ar 11.2157 8.80834 6.72427
81 Ar 11.4164 8.95681 11.2519
82 Ar 2.19793 2.26971 -0.00319687
83 Ar 2.21855 2.25367 4.4817
84 Ar 2.22671 2.20323 8.76363
85 Ar 2.11629 6.59362 -0.091539
86 Ar 2.52837 6.7515 4.50715
87 Ar 2.27812 6.50822 9.11857
88 Ar 2.39082 11.1781 0.0168035
89 Ar 2.37467 11.1422 4.39005
90 Ar 2.30206 11.1504 8.97924
91 Ar 6.57283 2.26073 0.0233446
92 Ar 6.51274 2.28282 4.37701
93 Ar 6.67751 2.26009 8.67791
94 Ar 6.77941 6.67722 -0.0920933
95 Ar 6.45478 6.83217 4.23175
96 Ar 6.73506 6.67634 9.08856
97 Ar 6.82847 11.2635 -0.23093
98 Ar 6.67219 11.0881 4.44447
99 Ar 6.67649 11.2055 8.82149
100 Ar 11.1136 2.06405 0.00831694
101 Ar 11.1577 2.25214 4.41761
102 Ar 11.0385 2.20951 9.03662
103 Ar 11.068 6.72151 -0.00826863
104 Ar 10.9425 6.79003 4.46841
105 Ar 11.1255 6.67003 9.00109
106 Ar 11.0875 11.1374 0.0318013
107 Ar 10.9687 10.9775 4.63835
108 Ar 11.4965 11.0156 8.80823
ITEM: TIMESTEP
68010
ITEM: NUMBER OF ATOMS
108
ITEM: BOX BOUNDS pp pp pp
0.0000000000000000e+00 1.3349999400000000e+01
0.0000000000000000e+00 1.3349999400000000e+01
0.0000000000000000e+00 1.3349999400000000e+01
ITEM: ATOMS id element xu yu zu
1 Ar 0.0067753 -0.0327703 0.124385
2 Ar -0.10025 -0.121594 4.76148
3 Ar 0.0964955 0.0639592 9.05988
4 Ar -0.161412 4.43455 0.0784852
5 Ar -0.0663683 4.55951 4.46605
6 Ar 0.0856801 4.38008 8.7987
7 Ar -0.0778282 8.90814 0.0322276
8 Ar 0.258643 8.62342 4.54805
9 Ar 0.240646 8.83357 8.90196
10 Ar 4.4042 -0.0947165 0.0227862
11 Ar 4.35754 0.0998089 4.48868
12 Ar 4.41821 0.0440416 9.0657
13 Ar 4.34401 4.42013 -0.142203
14 Ar 4.41373 4.47256 4.26792
15 Ar 4.45668 4.35893 8.84692
16 Ar 4.51206 8.91418 -0.346491
17 Ar 4.5997 8.87137 4.30436
18 Ar 4.51538 8.86608 8.95734
19 Ar 8.92289 0.0273081 0.0600785
20 Ar 8.8603 -0.0414897 4.57826
21 Ar 9.03166 -0.0718016 8.70353
22 Ar 8.85604 4.33526 0.0282696
23 Ar 8.78831 4.59656 4.34047
24 Ar 8.84885 4.56084 8.96864
25 Ar 8.9412 8.89146 -0.0283278
26 Ar 8.8194 9.00889 4.5147
27 Ar 8.92266 8.71178 8.89959
28 Ar 0.0527818 2.26193 2.48269
29 Ar -0.187756 2.42342 6.59742
30 Ar -0.0260897 2.41858 11.1712
31 Ar -0.142721 6.67061 2.25142
32 Ar -0.0920924 6.62507 6.852
33 Ar -0.161097 6.59833 11.0528
34 Ar -0.0443195 11.1092 2.29011
35 Ar 0.0668244 10.9257 6.454
36 Ar 0.11481 11.2475 11.2443
37 Ar 4.22303 2.23899 2.25233
38 Ar 4.48193 2.32559 6.58096
39 Ar 4.54669 2.09711 11.1102
40 Ar 4.2486 6.58305 2.05847
41 Ar 4.44399 6.57833 6.90722
42 Ar 4.45784 6.68927 11.0469
43 Ar 4.5879 11.0792 2.09956
44 Ar 4.4448 11.0247 6.67463
45 Ar 4.54281 11.2252 11.0226
46 Ar 8.84418 2.41435 2.16434
47 Ar 8.78402 2.52072 6.62037
48 Ar 9.05132 2.14997 11.0856
49 Ar 8.92965 6.74992 2.32738
50 Ar 8.81738 6.71803 6.59645
51 Ar 9.01203 6.41898 11.3017
52 Ar 8.94328 11.1126 2.19912
53 Ar 8.83008 11.1044 6.85729
54 Ar 8.97494 11.1039 10.7369
55 Ar 2.20516 0.00656659 2.10178
56 Ar 2.1394 -0.260652 6.6895
57 Ar 2.07389 0.341735 11.1181
58 Ar 2.05293 4.52132 2.37803
59 Ar 2.2756 4.55149 6.55021
60 Ar 2.10285 4.3774 11.1132
61 Ar 2.41804 9.1033 2.21857
62 Ar 2.37706 8.91587 6.67698
63 Ar 2.14902 8.8774 11.1655
64 Ar 6.71259 -0.0295294 2.40571
65 Ar 6.4944 0.0359616 6.5659
66 Ar 6.90315 0.0906169 11.0682
67 Ar 6.62418 4.50341 2.0835
68 Ar 6.56751 4.42564 6.75349
69 Ar 6.79663 4.25474 11.0201
70 Ar 6.69016 8.77098 1.99698
71 Ar 6.52561 8.82582 6.63286
72 Ar 6.84008 9.0073 10.9465
73 Ar 10.985 -0.0016035 2.43381
74 Ar 11.1547 -0.0100232 6.8789
75 Ar 11.1196 -0.168501 11.0241
76 Ar 11.1892 4.49568 2.40812
77 Ar 10.982 4.54604 6.82548
78 Ar 11.0781 4.42273 11.2355
79 Ar 11.0788 8.93178 2.24659
80 Ar 11.2141 8.82694 6.71554
81 Ar 11.4082 8.93817 11.2432
82 Ar 2.19455 2.27295 -0.0204703
83 Ar 2.24975 2.25813 4.48739
84 Ar 2.22979 2.18084 8.78253
85 Ar 2.11623 6.57299 -0.0813689
86 Ar 2.55134 6.75663 4.50209
87 Ar 2.27914 6.5108 9.12398
88 Ar 2.37437 11.1852 0.010922
89 Ar 2.35644 11.1393 4.38051
90 Ar 2.30417 11.1574 8.98332
91 Ar 6.59157 2.26578 0.0224316
92 Ar 6.51385 2.26519 4.36035
93 Ar 6.66958 2.26842 8.67217
94 Ar 6.76584 6.67488 -0.08065
95 Ar 6.45578 6.84438 4.21541
96 Ar 6.73203 6.67961 9.07473
97 Ar 6.81973 11.2764 -0.220576
98 Ar 6.66993 11.0781 4.43073
99 Ar 6.66895 11.1956 8.81693
100 Ar 11.1185 2.05857 0.0385342
101 Ar 11.1434 2.26257 4.42211
102 Ar 11.0304 2.19289 9.03618
103 Ar 11.0738 6.7357 0.0187632
104 Ar 10.9462 6.79441 4.45826
105 Ar 11.1436 6.6767 8.99009
106 Ar 11.0956 11.1537 0.0174181
107 Ar 10.967 10.9727 4.64308
108 Ar 11.4906 10.9844 8.82924
ITEM: TIMESTEP
68020
ITEM: NUMBER OF ATOMS
108
ITEM: BOX BOUNDS pp pp pp
0.0000000000000000e+00 1.3349999400000000e+01
0.0000000000000000e+00 1.3349999400000000e+01
0.0000000000000000e+00 1.3349999400000000e+01
ITEM: ATOMS id element xu yu zu
1 Ar 0.0210765 -0.0392664 0.119351
2 Ar -0.105871 -0.115385 4.75228
3 Ar 0.0955414 0.0673738 9.07621
4 Ar -0.153055 4.42546 0.0860965
5 Ar -0.0548412 4.54966 4.45092
6 Ar 0.0918816 4.3929 8.81401
7 Ar -0.0646653 8.89565 0.0285352
8 Ar 0.282264 8.61204 4.54415
9 Ar 0.23597 8.85641 8.9152
10 Ar 4.39462 -0.0800776 0.00347058
11 Ar 4.39823 0.0978357 4.49782
12 Ar 4.42612 0.0377461 9.05318
13 Ar 4.34763 4.41626 -0.159992
14 Ar 4.41696 4.46262 4.27426
15 Ar 4.43928 4.37158 8.8588
16 Ar 4.52912 8.90787 -0.355716
17 Ar 4.60636 8.86594 4.31783
18 Ar 4.5231 8.86057 8.97427
19 Ar 8.92971 0.0293889 0.0470971
20 Ar 8.86134 -0.0363503 4.56968
21 Ar 9.03504 -0.0795977 8.69975
22 Ar 8.8754 4.32269 0.025656
23 Ar 8.78982 4.59093 4.36528
24 Ar 8.82349 4.53631 8.95585
25 Ar 8.94918 8.90459 -0.0345192
26 Ar 8.8095 9.01149 4.53992
27 Ar 8.92276 8.71741 8.89516
28 Ar 0.0551576 2.26151 2.46062
29 Ar -0.187848 2.43451 6.60945
30 Ar -0.0330797 2.41385 11.1747
31 Ar -0.13518 6.68206 2.25639
32 Ar -0.0994431 6.64149 6.8391
33 Ar -0.175722 6.61011 11.0609
34 Ar -0.0519057 11.1248 2.30321
35 Ar 0.0774073 10.9169 6.44466
36 Ar 0.107866 11.2494 11.2516
37 Ar 4.21612 2.23277 2.25815
38 Ar 4.4711 2.29285 6.57444
39 Ar 4.54716 2.08966 11.1057
40 Ar 4.22731 6.59852 2.05012
41 Ar 4.44613 6.57872 6.89629
42 Ar 4.46632 6.70057 11.0589
43 Ar 4.59241 11.0892 2.09441
44 Ar 4.42709 11.0303 6.66311
45 Ar 4.52758 11.2094 11.0089
46 Ar 8.83147 2.40816 2.16195
47 Ar 8.8166 2.52736 6.62257
48 Ar 9.05214 2.17543 11.102
49 Ar 8.92147 6.75011 2.31442
50 Ar 8.82832 6.71266 6.59355
51 Ar 9.01381 6.41972 11.2963
52 Ar 8.9378 11.1266 2.1904
53 Ar 8.81666 11.119 6.83501
54 Ar 8.97775 11.1107 10.7322
55 Ar 2.17682 0.0157119 2.11688
56 Ar 2.12387 -0.247407 6.68469
57 Ar 2.08624 0.317495 11.1189
58 Ar 2.02967 4.51385 2.36475
59 Ar 2.28469 4.55601 6.56655
60 Ar 2.11687 4.38188 11.1194
61 Ar 2.41026 9.11499 2.22721
62 Ar 2.3683 8.91385 6.67285
63 Ar 2.13797 8.8827 11.1897
64 Ar 6.7038 -0.0471161 2.40823
65 Ar 6.49187 0.0192558 6.5781
66 Ar 6.89609 0.0879581 11.07
67 Ar 6.641 4.51289 2.09241
68 Ar 6.58291 4.41079 6.72918
69 Ar 6.78933 4.24984 11.0232
70 Ar 6.6873 8.78098 1.99939
71 Ar 6.53441 8.80836 6.64739
72 Ar 6.81752 9.01122 10.9398
73 Ar 10.9761 0.00459119 2.43994
74 Ar 11.1519 -0.0323414 6.87694
75 Ar 11.1456 -0.167565 11.0223
76 Ar 11.1997 4.52227 2.40164
77 Ar 10.9972 4.54706 6.82357
78 Ar 11.0766 4.42937 11.2522
79 Ar 11.061 8.92327 2.24634
80 Ar 11.2111 8.84519 6.70728
81 Ar 11.3953 8.92052 11.2309
82 Ar 2.19042 2.27687 -0.0358564
83 Ar 2.27875 2.26125 4.49519
84 Ar 2.23313 2.15995 8.79977
85 Ar 2.11554 6.55397 -0.0707365
86 Ar 2.57104 6.76136 4.4968
87 Ar 2.27887 6.51546 9.12591
88 Ar 2.35525 11.1906 0.00320501
89 Ar 2.33763 11.1364 4.37048
90 Ar 2.30508 11.1636 8.98754
91 Ar 6.61023 2.26848 0.0220501
92 Ar 6.51782 2.24856 4.34355
93 Ar 6.66257 2.27345 8.67043
94 Ar 6.75042 6.67145 -0.0704263
95 Ar 6.46032 6.85118 4.20194
96 Ar 6.7284 6.68182 9.05914
97 Ar 6.81054 11.2871 -0.208277
98 Ar 6.66729 11.0687 4.41739
99 Ar 6.65989 11.1858 8.81228
100 Ar 11.1246 2.05444 0.0695682
101 Ar 11.126 2.27264 4.42856
102 Ar 11.0248 2.17798 9.03268
103 Ar 11.0803 6.74835 0.0473625
104 Ar 10.9531 6.79814 4.44961
105 Ar 11.1604 6.68361 8.97883
106 Ar 11.1036 11.1706 0.00282638
107 Ar 10.9675 10.97 4.64601
108 Ar 11.4825 10.9536 8.85083
ITEM: TIMESTEP
68030
ITEM: NUMBER OF ATOMS
108
ITEM: BOX BOUNDS pp pp pp
0.0000000000000000e+00 1.3349999400000000e+01
0.0000000000000000e+00 1.3349999400000000e+01
0.0000000000000000e+00 1.3349999400000000e+01
ITEM: ATOMS id element xu yu zu
1 Ar 0.0337004 -0.0443201 0.113656
2 Ar -0.111212 -0.106659 4.73825
3 Ar 0.0923653 0.0704634 9.08835
4 Ar -0.143786 4.41645 0.0941239
5 Ar -0.042879 4.54163 4.43914
6 Ar 0.0963489 4.40567 8.83077
7 Ar -0.0482724 8.88364 0.0274305
8 Ar 0.302821 8.6025 4.53791
9 Ar 0.230568 8.8791 8.92788
10 Ar 4.3875 -0.062655 -0.0165019
11 Ar 4.43762 0.0929425 4.50523
12 Ar 4.43467 0.0314007 9.03657
13 Ar 4.35284 4.4127 -0.17675
14 Ar 4.42214 4.45311 4.28245
15 Ar 4.42149 4.38346 8.87358
16 Ar 4.54633 8.90206 -0.361019
17 Ar 4.60967 8.86449 4.33204
18 Ar 4.52885 8.85607 8.99074
19 Ar 8.93621 0.0315855 0.0339309
20 Ar 8.86266 -0.0297306 4.56229
21 Ar 9.03439 -0.0838948 8.69868
22 Ar 8.89616 4.31186 0.0232337
23 Ar 8.79061 4.58396 4.39122
24 Ar 8.80029 4.51105 8.94177
25 Ar 8.95673 8.91879 -0.0426028
26 Ar 8.79872 9.01224 4.56417
27 Ar 8.92465 8.72419 8.89002
28 Ar 0.0562892 2.25861 2.43606
29 Ar -0.185624 2.44255 6.6225
30 Ar -0.042287 2.40646 11.1778
31 Ar -0.124958 6.69557 2.2609
32 Ar -0.10404 6.65761 6.82414
33 Ar -0.186845 6.62075 11.0711
34 Ar -0.0597412 11.1398 2.31738
35 Ar 0.0878207 10.9077 6.43875
36 Ar 0.101563 11.2498 11.2584
37 Ar 4.2121 2.22671 2.26119
38 Ar 4.45789 2.25925 6.56942
39 Ar 4.54699 2.08474 11.1017
40 Ar 4.20863 6.61541 2.03995
41 Ar 4.44947 6.58082 6.88336
42 Ar 4.47582 6.70933 11.0724
43 Ar 4.59786 11.1 2.08997
44 Ar 4.41029 11.0377 6.65168
45 Ar 4.51178 11.1935 10.9972
46 Ar 8.8196 2.3985 2.1626
47 Ar 8.85099 2.52936 6.62368
48 Ar 9.05062 2.2004 11.1194
49 Ar 8.91235 6.74963 2.29882
50 Ar 8.83787 6.70675 6.59157
51 Ar 9.0136 6.42563 11.2888
52 Ar 8.93069 11.1399 2.18227
53 Ar 8.80424 11.1313 6.81067
54 Ar 8.98188 11.1167 10.7311
55 Ar 2.14882 0.0241246 2.13542
56 Ar 2.1102 -0.230401 6.6809
57 Ar 2.10124 0.289248 11.1219
58 Ar 2.008 4.50637 2.34899
59 Ar 2.29224 4.55928 6.58382
60 Ar 2.13277 4.38617 11.1258
61 Ar 2.39978 9.12286 2.23354
62 Ar 2.35971 8.91022 6.67014
63 Ar 2.12756 8.88816 11.214
64 Ar 6.69472 -0.0633629 2.40739
65 Ar 6.49164 0.00216117 6.59173
66 Ar 6.88786 0.0854231 11.0705
67 Ar 6.6562 4.52274 2.10224
68 Ar 6.59875 4.4004 6.70156
69 Ar 6.77927 4.24624 11.0282
70 Ar 6.68379 8.79435 2.00177
71 Ar 6.54492 8.79123 6.66319
72 Ar 6.79476 9.01403 10.9364
73 Ar 10.9697 0.010505 2.44486
74 Ar 11.151 -0.054115 6.87192
75 Ar 11.1715 -0.164843 11.0221
76 Ar 11.2072 4.54757 2.39223
77 Ar 11.0131 4.54804 6.81972
78 Ar 11.0766 4.43474 11.2674
79 Ar 11.0446 8.91582 2.24697
80 Ar 11.2067 8.86277 6.69954
81 Ar 11.3778 8.9042 11.2158
82 Ar 2.18573 2.28126 -0.0491875
83 Ar 2.30475 2.26297 4.50486
84 Ar 2.23668 2.14099 8.81522
85 Ar 2.1141 6.53682 -0.0599506
86 Ar 2.58724 6.76522 4.49137
87 Ar 2.27724 6.52254 9.12456
88 Ar 2.33405 11.1943 -0.00589892
89 Ar 2.31874 11.1339 4.36022
90 Ar 2.30465 11.1691 8.99163
91 Ar 6.6284 2.26881 0.0222439
92 Ar 6.52473 2.23322 4.32701
93 Ar 6.65649 2.27511 8.67243
94 Ar 6.73366 6.66695 -0.0615824
95 Ar 6.46841 6.8523 4.19142
96 Ar 6.72432 6.68274 9.04203
97 Ar 6.80089 11.2954 -0.194371
98 Ar 6.66429 11.06 4.40477
99 Ar 6.64954 11.1762 8.80753
100 Ar 11.1321 2.05169 0.101065
101 Ar 11.106 2.2824 4.4366
102 Ar 11.0219 2.16506 9.02632
103 Ar 11.0872 6.75924 0.0768991
104 Ar 10.9631 6.80127 4.44257
105 Ar 11.1754 6.69053 8.96735
106 Ar 11.1114 11.1876 -0.0116589
107 Ar 10.9704 10.9696 4.64683
108 Ar 11.4725 10.9238 8.87254
ITEM: TIMESTEP
68040
ITEM: NUMBER OF ATOMS
108
ITEM: BOX BOUNDS pp pp pp
0.0000000000000000e+00 1.3349999400000000e+01
0.0000000000000000e+00 1.3349999400000000e+01
0.0000000000000000e+00 1.3349999400000000e+01
ITEM: ATOMS id element xu yu zu
1 Ar 0.044441 -0.0477503 0.107318
2 Ar -0.116307 -0.0954214 4.71976
3 Ar 0.0870372 0.0730239 9.09604
4 Ar -0.133865 4.40774 0.102227
5 Ar -0.0305951 4.53533 4.43096
6 Ar 0.0990908 4.41828 8.84878
7 Ar -0.0293537 8.87247 0.0288616
8 Ar 0.319959 8.59504 4.52933
9 Ar 0.224844 8.90113 8.93988
10 Ar 4.38261 -0.04291 -0.0366706
11 Ar 4.47481 0.0847998 4.51059
12 Ar 4.4438 0.0249983 9.0162
13 Ar 4.35978 4.40938 -0.191984
14 Ar 4.42916 4.44428 4.29215
15 Ar 4.40387 4.39433 8.89065
16 Ar 4.56327 8.89717 -0.362049
17 Ar 4.60966 8.86711 4.34684
18 Ar 4.53217 8.85253 9.00613
19 Ar 8.94231 0.033852 0.0205782
20 Ar 8.86406 -0.0217152 4.55622
21 Ar 9.02973 -0.0847063 8.70041
22 Ar 8.91799 4.30318 0.0212102
23 Ar 8.79089 4.57595 4.4175
24 Ar 8.77967 4.48561 8.92676
25 Ar 8.96355 8.9339 -0.0525816
26 Ar 8.78739 9.01105 4.58696
27 Ar 8.92814 8.73205 8.88428
28 Ar 0.0559412 2.25326 2.40972
29 Ar -0.181084 2.4474 6.63635
30 Ar -0.053351 2.39658 11.1805
31 Ar -0.111995 6.71101 2.26493
32 Ar -0.105724 6.67323 6.80739
33 Ar -0.194157 6.62999 11.0833
34 Ar -0.0680752 11.1539 2.33229
35 Ar 0.0978001 10.8986 6.43631
36 Ar 0.0959005 11.2482 11.2645
37 Ar 4.21096 2.22087 2.26117
38 Ar 4.44288 2.22552 6.56642
39 Ar 4.54622 2.08231 11.0982
40 Ar 4.19295 6.63331 2.02819
41 Ar 4.45407 6.58449 6.86868
42 Ar 4.48606 6.71532 11.0872
43 Ar 4.6036 11.1115 2.08612
44 Ar 4.39453 11.0464 6.64045
45 Ar 4.49563 11.1777 10.9878
46 Ar 8.8088 2.38562 2.16638
47 Ar 8.88653 2.52632 6.62394
48 Ar 9.04702 2.22425 11.1375
49 Ar 8.90239 6.74841 2.28109
50 Ar 8.84615 6.70032 6.59066
51 Ar 9.01138 6.43648 11.2791
52 Ar 8.92224 11.1523 2.17483
53 Ar 8.79279 11.141 6.78468
54 Ar 8.98701 11.1218 10.7338
55 Ar 2.12184 0.0317033 2.15715
56 Ar 2.09838 -0.209921 6.67803
57 Ar 2.11866 0.257368 11.127
58 Ar 1.98874 4.49896 2.3311
59 Ar 2.29808 4.56126 6.60178
60 Ar 2.15002 4.39018 11.1319
61 Ar 2.38695 9.12702 2.2373
62 Ar 2.3516 8.90494 6.66916
63 Ar 2.11803 8.89354 11.2379
64 Ar 6.68558 -0.0779632 2.40295
65 Ar 6.49406 -0.0150536 6.60668
66 Ar 6.87865 0.0830292 11.0697
67 Ar 6.66952 4.53278 2.1128
68 Ar 6.61429 4.39415 6.67109
69 Ar 6.7666 4.2442 11.0352
70 Ar 6.67978 8.81094 2.004
71 Ar 6.5568 8.77481 6.68004
72 Ar 6.77264 9.01577 10.9363
73 Ar 10.9656 0.0160646 2.44851
74 Ar 11.152 -0.0753275 6.86407
75 Ar 11.1965 -0.160107 11.0235
76 Ar 11.2114 4.5711 2.38025
77 Ar 11.0297 4.54918 6.81415
78 Ar 11.0782 4.43889 11.2807
79 Ar 11.0297 8.90995 2.24851
80 Ar 11.2009 8.8794 6.69237
81 Ar 11.3559 8.88941 11.1984
82 Ar 2.18065 2.28588 -0.0603588
83 Ar 2.32705 2.26325 4.51606
84 Ar 2.24036 2.12434 8.82887
85 Ar 2.11185 6.52175 -0.0493417
86 Ar 2.5998 6.76776 4.48588
87 Ar 2.27427 6.5323 9.1202
88 Ar 2.31145 11.1964 -0.0158581
89 Ar 2.30024 11.1322 4.34999
90 Ar 2.30278 11.1738 8.99533
91 Ar 6.64572 2.2668 0.0230475
92 Ar 6.53461 2.2194 4.31111
93 Ar 6.6513 2.27349 8.67778
94 Ar 6.71609 6.66142 -0.054205
95 Ar 6.47981 6.84783 4.18387
96 Ar 6.71993 6.6822 9.0237
97 Ar 6.79083 11.3014 -0.179238
98 Ar 6.66095 11.0519 4.39313
99 Ar 6.6382 11.1667 8.8027
100 Ar 11.1408 2.0503 0.132657
101 Ar 11.0842 2.29193 4.44583
102 Ar 11.0214 2.15433 9.0174
103 Ar 11.0944 6.76819 0.106663
104 Ar 10.9757 6.80383 4.43721
105 Ar 11.1881 6.69724 8.95568
106 Ar 11.119 11.2042 -0.0257061
107 Ar 10.9754 10.9714 4.64527
108 Ar 11.4603 10.8959 8.89392
ITEM: TIMESTEP
68050
ITEM: NUMBER OF ATOMS
108
ITEM: BOX BOUNDS pp pp pp
0.0000000000000000e+00 1.3349999400000000e+01
0.0000000000000000e+00 1.3349999400000000e+01
0.0000000000000000e+00 1.3349999400000000e+01
ITEM: ATOMS id element xu yu zu
1 Ar 0.0531677 -0.0494196 0.100387
2 Ar -0.121143 -0.0817528 4.69732
3 Ar 0.0797642 0.0748708 9.09916
4 Ar -0.123579 4.39953 0.110029
5 Ar -0.0181415 4.5306 4.42648
6 Ar 0.100129 4.43062 8.86786
7 Ar -0.00871289 8.86245 0.0327018
8 Ar 0.33339 8.58991 4.51856
9 Ar 0.219178 8.922 8.95107
10 Ar 4.3797 -0.0213792 -0.0565524
11 Ar 4.50904 0.0732287 4.51365
12 Ar 4.45337 0.0185318 8.99251
13 Ar 4.36854 4.40621 -0.205211
14 Ar 4.43788 4.4363 4.30301
15 Ar 4.38698 4.40399 8.90942
16 Ar 4.57947 8.89356 -0.358536
17 Ar 4.60655 8.87365 4.36208
18 Ar 4.53263 8.84989 9.01988
19 Ar 8.94798 0.0361365 0.00703889
20 Ar 8.86534 -0.0124367 4.5515
21 Ar 9.02125 -0.0821697 8.70486
22 Ar 8.94051 4.29701 0.0198524
23 Ar 8.79096 4.56721 4.4433
24 Ar 8.76198 4.46054 8.91122
25 Ar 8.96938 8.94978 -0.0643832
26 Ar 8.77585 9.00787 4.60781
27 Ar 8.93298 8.74091 8.87808
28 Ar 0.053903 2.24564 2.38237
29 Ar -0.174262 2.449 6.65079
30 Ar -0.0658518 2.38439 11.1828
31 Ar -0.0963117 6.72816 2.26845
32 Ar -0.104407 6.68816 6.78917
33 Ar -0.197501 6.63767 11.0974
34 Ar -0.0771224 11.1669 2.34758
35 Ar 0.107127 10.8899 6.43729
36 Ar 0.09083 11.2446 11.2695
37 Ar 4.21266 2.21529 2.25797
38 Ar 4.42673 2.19234 6.5659
39 Ar 4.54484 2.08228 11.095
40 Ar 4.18059 6.65184 2.01515
41 Ar 4.45995 6.58954 6.85253
42 Ar 4.49671 6.71839 11.1027
43 Ar 4.6089 11.1234 2.08273
44 Ar 4.37989 11.0562 6.62956
45 Ar 4.47936 11.1626 10.981
46 Ar 8.79926 2.36979 2.17325
47 Ar 8.92252 2.518 6.62363
48 Ar 9.04167 2.24643 11.1557
49 Ar 8.89167 6.74642 2.26174
50 Ar 8.85334 6.69342 6.59097
51 Ar 9.0072 6.45189 11.2677
52 Ar 8.9128 11.1637 2.16817
53 Ar 8.78226 11.1485 6.75758
54 Ar 8.99278 11.1261 10.7403
55 Ar 2.09654 0.0383531 2.18171
56 Ar 2.08837 -0.186337 6.67595
57 Ar 2.13815 0.222319 11.134
58 Ar 1.97266 4.49166 2.3115
59 Ar 2.3021 4.56193 6.62019
60 Ar 2.16806 4.39388 11.1375
61 Ar 2.37215 9.12768 2.23829
62 Ar 2.34421 8.89806 6.67017
63 Ar 2.10968 8.89857 11.2612
64 Ar 6.67663 -0.0906117 2.39475
65 Ar 6.49939 -0.0320896 6.62279
66 Ar 6.86867 0.0807366 11.0676
67 Ar 6.6808 4.54273 2.12387
68 Ar 6.62891 4.39154 6.6384
69 Ar 6.7516 4.24399 11.0438
70 Ar 6.67545 8.83043 2.00603
71 Ar 6.56967 8.75948 6.69772
72 Ar 6.75197 9.01646 10.9395
73 Ar 10.9641 0.0211792 2.45089
74 Ar 11.1551 -0.0959752 6.85368
75 Ar 11.22 -0.153172 11.0265
76 Ar 11.2123 4.59243 2.36614
77 Ar 11.047 4.55067 6.80708
78 Ar 11.0815 4.44195 11.292
79 Ar 11.0164 8.90611 2.25099
80 Ar 11.1939 8.8948 6.68578
81 Ar 11.33 8.87622 11.1798
82 Ar 2.17536 2.29048 -0.0693321
83 Ar 2.34505 2.26213 4.52835
84 Ar 2.24406 2.11025 8.8408
85 Ar 2.10876 6.50892 -0.0392536
86 Ar 2.60866 6.76859 4.48038
87 Ar 2.27002 6.54493 9.11314
88 Ar 2.28817 11.197 -0.0260777
89 Ar 2.28252 11.1315 4.34007
90 Ar 2.29939 11.1777 8.99834
91 Ar 6.66187 2.26256 0.0244884
92 Ar 6.54732 2.2073 4.29624
93 Ar 6.64695 2.26886 8.68596
94 Ar 6.69824 6.65495 -0.0483096
95 Ar 6.49414 6.83814 4.17926
96 Ar 6.71539 6.68002 9.00446
97 Ar 6.78038 11.3052 -0.163294
98 Ar 6.65737 11.0446 4.38273
99 Ar 6.62623 11.1575 8.79785
100 Ar 11.1507 2.05029 0.163953
101 Ar 11.0613 2.30129 4.45583
102 Ar 11.0232 2.14596 9.00625
103 Ar 11.1016 6.77512 0.135892
104 Ar 10.9908 6.80584 4.43351
105 Ar 11.1985 6.70357 8.9439
106 Ar 11.1264 11.22 -0.0389766
107 Ar 10.9823 10.9755 4.64109
108 Ar 11.4461 10.8704 8.91454
ITEM: TIMESTEP
68060
ITEM: NUMBER OF ATOMS
108
ITEM: BOX BOUNDS pp pp pp
0.0000000000000000e+00 1.3349999400000000e+01
0.0000000000000000e+00 1.3349999400000000e+01
0.0000000000000000e+00 1.3349999400000000e+01
ITEM: ATOMS id element xu yu zu
1 Ar 0.0598326 -0.0492441 0.0929484
2 Ar -0.12567 -0.0657833 4.67153
3 Ar 0.0708653 0.0758361 9.0977
4 Ar -0.113235 4.392 0.117131
5 Ar -0.00568658 4.52724 4.42564
6 Ar 0.0994984 4.44259 8.88781
7 Ar 0.012788 8.85388 0.0387815
8 Ar 0.342909 8.58743 4.5058
9 Ar 0.213895 8.94121 8.9614
10 Ar 4.37856 0.00135542 -0.0756536
11 Ar 4.53973 0.0582239 4.51422
12 Ar 4.46318 0.0119896 8.96607
13 Ar 4.37915 4.40309 -0.215956
14 Ar 4.44804 4.42931 4.3147
15 Ar 4.3713 4.41236 8.92928
16 Ar 4.59446 8.89155 -0.350313
17 Ar 4.60067 8.88371 4.37757
18 Ar 4.52994 8.84801 9.03151
19 Ar 8.95319 0.0383813 -0.00667646
20 Ar 8.8663 -0.00207727 4.54812
21 Ar 9.00929 -0.0765291 8.71181
22 Ar 8.9633 4.2936 0.019464
23 Ar 8.79112 4.55804 4.46784
24 Ar 8.74741 4.4363 8.89554
25 Ar 8.97401 8.96623 -0.0778558
26 Ar 8.76449 9.00267 4.62625
27 Ar 8.93887 8.75069 8.87155
28 Ar 0.0500212 2.23603 2.35474
29 Ar -0.165228 2.44733 6.66559
30 Ar -0.0793326 2.3701 11.1848
31 Ar -0.0780131 6.74664 2.27147
32 Ar -0.100077 6.70223 6.76983
33 Ar -0.196878 6.64372 11.1132
34 Ar -0.0870481 11.1783 2.36285
35 Ar 0.115629 10.8821 6.44155
36 Ar 0.0862507 11.2387 11.2734
37 Ar 4.21707 2.21003 2.2516
38 Ar 4.41016 2.1603 6.56822
39 Ar 4.54283 2.0845 11.0919
40 Ar 4.17185 6.67065 2.00122
41 Ar 4.46708 6.59572 6.83519
42 Ar 4.50742 6.71849 11.1186
43 Ar 4.61301 11.1355 2.07967
44 Ar 4.36637 11.0666 6.61916
45 Ar 4.4632 11.1484 10.9771
46 Ar 8.79114 2.35139 2.18301
47 Ar 8.9582 2.50427 6.62308
48 Ar 9.03493 2.26647 11.1737
49 Ar 8.88033 6.74373 2.24126
50 Ar 8.85961 6.6861 6.59263
51 Ar 9.00117 6.47139 11.2547
52 Ar 8.90271 11.1737 2.16239
53 Ar 8.77266 11.1538 6.72995
54 Ar 8.99881 11.1296 10.7506
55 Ar 2.07351 0.0439917 2.20869
56 Ar 2.08002 -0.160103 6.6745
57 Ar 2.15932 0.184648 11.1426
58 Ar 1.9604 4.48447 2.29067
59 Ar 2.30427 4.56132 6.63883
60 Ar 2.18631 4.39722 11.1424
61 Ar 2.35583 9.12511 2.23638
62 Ar 2.33777 8.88963 6.67328
63 Ar 2.10279 8.90297 11.2833
64 Ar 6.66814 -0.101011 2.38271
65 Ar 6.50778 -0.0486218 6.6398
66 Ar 6.85804 0.0784586 11.0642
67 Ar 6.68995 4.55228 2.13522
68 Ar 6.64209 4.39198 6.60419
69 Ar 6.73465 4.24581 11.054
70 Ar 6.67097 8.8524 2.00791
71 Ar 6.58317 8.7456 6.71593
72 Ar 6.73351 9.01613 10.9457
73 Ar 10.9649 0.0257427 2.45199
74 Ar 11.1602 -0.116055 6.84116
75 Ar 11.2414 -0.143907 11.0311
76 Ar 11.2099 4.61122 2.35044
77 Ar 11.0649 4.55268 6.79872
78 Ar 11.0866 4.44413 11.3011
79 Ar 11.0048 8.90467 2.25444
80 Ar 11.1857 8.90879 6.67977
81 Ar 11.3006 8.86459 11.1608
82 Ar 2.17003 2.2948 -0.0761373
83 Ar 2.35834 2.25969 4.5412
84 Ar 2.24767 2.09889 8.85122
85 Ar 2.10485 6.49845 -0.0300306
86 Ar 2.6138 6.76736 4.47487
87 Ar 2.26457 6.5605 9.10374
88 Ar 2.26493 11.1964 -0.0359217
89 Ar 2.26594 11.1322 4.33076
90 Ar 2.29442 11.1807 9.00038
91 Ar 6.67662 2.25626 0.0265868
92 Ar 6.56264 2.19704 4.28278
93 Ar 6.64335 2.26154 8.69643
94 Ar 6.68062 6.64766 -0.043848
95 Ar 6.51082 6.8239 4.17752
96 Ar 6.71083 6.6761 8.9847
97 Ar 6.76963 11.3068 -0.146993
98 Ar 6.65365 11.038 4.37376
99 Ar 6.61401 11.1483 8.79308
100 Ar 11.1616 2.05165 0.194544
101 Ar 11.038 2.31054 4.46613
102 Ar 11.027 2.14002 8.99325
103 Ar 11.1087 6.78005 0.163805
104 Ar 11.0076 6.80731 4.43143
105 Ar 11.2064 6.70933 8.93207
106 Ar 11.1336 11.2345 -0.0511367
107 Ar 10.991 10.9815 4.63413
108 Ar 11.4298 10.8481 8.93399
ITEM: TIMESTEP
68070
ITEM: NUMBER OF ATOMS
108
ITEM: BOX BOUNDS pp pp pp
0.0000000000000000e+00 1.3349999400000000e+01
0.0000000000000000e+00 1.3349999400000000e+01
0.0000000000000000e+00 1.3349999400000000e+01
ITEM: ATOMS id element xu yu zu
1 Ar 0.0644727 -0.047203 0.0851169
2 Ar -0.129813 -0.0476707 4.64308
3 Ar 0.0607342 0.0757639 9.09176
4 Ar -0.103154 4.38534 0.123134
5 Ar 0.00660567 4.525 4.42819
6 Ar 0.0972512 4.4541 8.90841
7 Ar 0.0342651 8.847 0.0469054
8 Ar 0.348402 8.58793 4.49138
9 Ar 0.209234 8.95834 8.97085
10 Ar 4.37903 0.0246955 -0.0934832
11 Ar 4.56645 0.0399661 4.51224
12 Ar 4.47297 0.00534989 8.93751
13 Ar 4.3915 4.39992 -0.223766
14 Ar 4.45937 4.42331 4.32692
15 Ar 4.35724 4.41941 8.94962
16 Ar 4.60781 8.89139 -0.337337
17 Ar 4.59243 8.89673 4.39311
18 Ar 4.52389 8.84672 9.04067
19 Ar 8.95793 0.0405229 -0.0205401
20 Ar 8.8668 0.00913067 4.54602
21 Ar 8.9943 -0.0681126 8.72096
22 Ar 8.98592 4.29316 0.0203522
23 Ar 8.79172 4.54873 4.49034
24 Ar 8.73606 4.41332 8.88013
25 Ar 8.97732 8.98306 -0.0927648
26 Ar 8.75366 8.99545 4.64185
27 Ar 8.94543 8.76131 8.86482
28 Ar 0.0442293 2.2248 2.32757
29 Ar -0.15409 2.44246 6.68055
30 Ar -0.0933164 2.35396 11.1863
31 Ar -0.0572996 6.76596 2.27396
32 Ar -0.0927893 6.71533 6.74979
33 Ar -0.192442 6.64819 11.1307
34 Ar -0.0979546 11.188 2.37769
35 Ar 0.123182 10.8757 6.44891
36 Ar 0.0820094 11.2304 11.2758
37 Ar 4.22402 2.20513 2.24226
38 Ar 4.39389 2.12992 6.5736
39 Ar 4.54015 2.08876 11.0887
40 Ar 4.16697 6.68944 1.98683
41 Ar 4.47532 6.60274 6.81693
42 Ar 4.51783 6.71571 11.1343
43 Ar 4.61517 11.1476 2.07684
44 Ar 4.35394 11.0775 6.60938
45 Ar 4.44738 11.1355 10.9762
46 Ar 8.7846 2.33084 2.19534
47 Ar 8.99277 2.48516 6.62266
48 Ar 9.02713 2.28401 11.191
49 Ar 8.86853 6.74044 2.22009
50 Ar 8.86517 6.67841 6.5957
51 Ar 8.99344 6.49436 11.2404
52 Ar 8.89234 11.1824 2.15756
53 Ar 8.76401 11.1572 6.70239
54 Ar 9.00469 11.1324 10.7646
55 Ar 2.05325 0.0485567 2.2376
56 Ar 2.07314 -0.131744 6.6735
57 Ar 2.1817 0.14498 11.1521
58 Ar 1.95247 4.47735 2.26919
59 Ar 2.30465 4.55946 6.65751
60 Ar 2.20422 4.40021 11.1464
61 Ar 2.33844 9.11964 2.23154
62 Ar 2.33243 8.87976 6.67855
63 Ar 2.0977 8.90648 11.304
64 Ar 6.66037 -0.108883 2.36688
65 Ar 6.51929 -0.0643069 6.65735
66 Ar 6.84689 0.0760736 11.0597
67 Ar 6.69694 4.56105 2.14658
68 Ar 6.65341 4.39478 6.56928
69 Ar 6.71623 4.24981 11.0655
70 Ar 6.66654 8.87628 2.00972
71 Ar 6.59695 8.73349 6.73437
72 Ar 6.7179 9.01481 10.9547
73 Ar 10.9681 0.0296369 2.45183
74 Ar 11.167 -0.135553 6.827
75 Ar 11.2602 -0.132251 11.0371
76 Ar 11.2045 4.62719 2.33374
77 Ar 11.0833 4.5553 6.78928
78 Ar 11.0932 4.44569 11.3078
79 Ar 10.9949 8.90588 2.25885
80 Ar 11.1765 8.92119 6.67432
81 Ar 11.2683 8.85435 11.1422
82 Ar 2.1648 2.29855 -0.08087
83 Ar 2.36665 2.25606 4.55404
84 Ar 2.25105 2.09034 8.8604
85 Ar 2.1002 6.4904 -0.0220021
86 Ar 2.61529 6.76381 4.46933
87 Ar 2.25808 6.57899 9.09237
88 Ar 2.24241 11.1947 -0.0447349
89 Ar 2.25077 11.1342 4.32232
90 Ar 2.28789 11.1829 9.00118
91 Ar 6.6898 2.2481 0.0293537
92 Ar 6.58017 2.18865 4.27108
93 Ar 6.64044 2.25199 8.70862
94 Ar 6.66373 6.6397 -0.0407172
95 Ar 6.52923 6.80594 4.17858
96 Ar 6.70636 6.67036 8.9648
97 Ar 6.75864 11.3064 -0.130814
98 Ar 6.64991 11.0323 4.36637
99 Ar 6.60192 11.1391 8.78856
100 Ar 11.1732 2.0544 0.22399
101 Ar 11.0153 2.3197 4.47625
102 Ar 11.0326 2.13655 8.97882
103 Ar 11.1156 6.78308 0.189637
104 Ar 11.026 6.80821 4.43085
105 Ar 11.2119 6.71437 8.92028
106 Ar 11.1404 11.2475 -0.0618693
107 Ar 11.0012 10.9895 4.62436
108 Ar 11.4113 10.8297 8.95183
ITEM: TIMESTEP
68080
ITEM: NUMBER OF ATOMS
108
ITEM: BOX BOUNDS pp pp pp
0.0000000000000000e+00 1.3349999400000000e+01
0.0000000000000000e+00 1.3349999400000000e+01
0.0000000000000000e+00 1.3349999400000000e+01
ITEM: ATOMS id element xu yu zu
1 Ar 0.0672058 -0.043347 0.0770317
2 Ar -0.133493 -0.0275866 4.61272
3 Ar 0.0497955 0.0745087 9.08154
4 Ar -0.0936577 4.3797 0.12766
5 Ar 0.0185937 4.52366 4.43375
6 Ar 0.093458 4.46506 8.92947
7 Ar 0.0548453 8.84202 0.0568548
8 Ar 0.349851 8.59175 4.47574
9 Ar 0.205322 8.97303 8.97942
10 Ar 4.38098 0.0480524 -0.109569
11 Ar 4.58895 0.0188217 4.50772
12 Ar 4.48243 -0.00142409 8.90755
13 Ar 4.40544 4.39661 -0.228218
14 Ar 4.4715 4.41827 4.33936
15 Ar 4.34516 4.42521 8.96987
16 Ar 4.61909 8.89323 -0.31971
17 Ar 4.58227 8.91202 4.40849
18 Ar 4.51444 8.84584 9.04712
19 Ar 8.96221 0.0424918 -0.0345014
20 Ar 8.86672 0.0209037 4.54506
21 Ar 8.97684 -0.0573112 8.73197
22 Ar 9.00791 4.29575 0.0227853
23 Ar 8.79317 4.53952 4.51013
24 Ar 8.72794 4.39192 8.86535
25 Ar 8.9792 9.00006 -0.108792
26 Ar 8.74371 8.98622 4.65422
27 Ar 8.95226 8.77268 8.85801
28 Ar 0.0365727 2.21243 2.30158
29 Ar -0.140999 2.43451 6.69545
30 Ar -0.107321 2.33622 11.1875
31 Ar -0.034464 6.78552 2.27592
32 Ar -0.0826654 6.72737 6.72945
33 Ar -0.184481 6.65126 11.1496
34 Ar -0.109866 11.1957 2.39166
35 Ar 0.129705 10.8709 6.45912
36 Ar 0.0779066 11.2197 11.2765
37 Ar 4.2333 2.20063 2.23026
38 Ar 4.37861 2.10162 6.58207