ITEM: TIMESTEP
50000
ITEM: NUMBER OF ATOMS
108
ITEM: BOX BOUNDS pp pp pp
0.0000000000000000e+00 1.3349999400000000e+01
0.0000000000000000e+00 1.3349999400000000e+01
0.0000000000000000e+00 1.3349999400000000e+01
ITEM: ATOMS id element xu yu zu
1 Ar -0.138702 -0.0329779 -0.0991012
2 Ar 0.112041 0.200545 4.55813
3 Ar -0.0745799 0.119288 8.99665
4 Ar 0.0639989 4.46698 -0.0553106
5 Ar -0.068857 4.15478 4.46391
6 Ar 0.04224 4.76409 8.91051
7 Ar -0.29041 8.93873 0.161465
8 Ar 0.188881 8.8196 4.39425
9 Ar 0.0467774 8.94145 8.67901
10 Ar 4.61546 0.27419 -0.0737956
11 Ar 4.37017 -0.411124 4.65549
12 Ar 4.45229 -0.101989 8.70735
13 Ar 4.44215 4.44536 0.098566
14 Ar 4.35976 4.32232 4.61193
15 Ar 4.727 4.50328 8.77656
16 Ar 4.4432 8.97197 -0.0795263
17 Ar 4.49992 8.96629 4.50129
18 Ar 4.49734 8.87184 8.91948
19 Ar 8.74983 0.0216729 -0.00180373
20 Ar 8.91666 -0.149857 4.47112
21 Ar 9.02004 -0.0361141 8.93579
22 Ar 8.80129 4.4355 0.0728115
23 Ar 9.05655 4.51745 4.29442
24 Ar 8.8996 4.63517 8.98269
25 Ar 8.91372 8.71801 0.13092
26 Ar 8.92661 8.9949 4.34159
27 Ar 8.88996 8.91466 8.94105
28 Ar -0.0629553 2.07365 2.28283
29 Ar 0.00723938 2.31885 6.73564
30 Ar 0.0180091 2.35938 11.0338
31 Ar 0.0536335 6.48625 2.18102
32 Ar 0.0725937 6.77365 6.59628
33 Ar -0.10847 6.73401 11.1837
34 Ar -0.07802 11.2586 2.26126
35 Ar -0.0806856 11.0904 6.61663
36 Ar -0.0709298 10.9891 11.1858
37 Ar 4.37151 1.9661 2.36824
38 Ar 4.57971 2.27724 6.59594
39 Ar 4.567 2.43435 10.9115
40 Ar 4.47451 6.55159 2.24741
41 Ar 4.53045 6.6072 6.67198
42 Ar 4.57013 6.55825 11.0156
43 Ar 4.36819 11.1758 2.17235
44 Ar 4.53635 11.0224 6.83331
45 Ar 4.51972 11.0613 11.031
46 Ar 8.85551 2.19482 2.26717
47 Ar 8.99724 2.3685 6.67898
48 Ar 8.82851 2.15 10.9352
49 Ar 8.62206 6.45342 2.13604
50 Ar 9.06733 6.67462 6.55989
51 Ar 8.8846 6.64455 11.2765
52 Ar 8.99755 11.0009 1.92022
53 Ar 8.87002 11.1755 6.69603
54 Ar 8.86479 11.2342 11.1723
55 Ar 2.00476 0.147624 2.20172
56 Ar 2.20618 -0.107307 6.74331
57 Ar 2.25372 -0.12877 10.9849
58 Ar 2.27658 4.2627 2.24836
59 Ar 2.09898 4.56864 6.70665
60 Ar 2.29816 4.60674 11.0128
61 Ar 2.2642 8.84668 2.17965
62 Ar 2.2284 8.912 6.72418
63 Ar 2.1868 9.02995 11.0799
64 Ar 6.82741 -0.15827 2.15544
65 Ar 6.66855 -0.165324 6.78133
66 Ar 6.63549 0.216821 10.8909
67 Ar 6.45631 4.42598 2.55011
68 Ar 6.84441 4.53714 6.2247
69 Ar 6.72096 4.52156 11.0335
70 Ar 6.49136 8.99964 2.19013
71 Ar 6.85996 8.99775 6.79566
72 Ar 6.82791 8.74942 11.1934
73 Ar 10.9657 -0.0548134 2.147
74 Ar 11.0469 0.158085 6.79998
75 Ar 11.09 -0.0498673 11.1448
76 Ar 11.1622 4.48666 2.27158
77 Ar 11.2436 4.38572 6.77398
78 Ar 11.0375 4.54822 11.1612
79 Ar 11.1052 8.75849 2.43191
80 Ar 11.2596 8.86675 6.5592
81 Ar 10.9931 8.92815 11.1638
82 Ar 2.23315 2.25052 0.0690998
83 Ar 2.27442 2.10893 4.81066
84 Ar 2.24615 2.41343 8.83785
85 Ar 2.3246 6.53314 0.0965706
86 Ar 2.15711 6.70181 4.39436
87 Ar 2.39159 6.73589 8.97776
88 Ar 2.20156 11.1514 0.00430744
89 Ar 2.1669 11.1484 4.48529
90 Ar 2.07709 11.2448 9.06041
91 Ar 6.73147 2.41379 -0.00563216
92 Ar 6.61401 1.86694 4.55339
93 Ar 6.81829 2.13594 8.66059
94 Ar 6.49248 6.61906 0.022887
95 Ar 6.66408 6.97014 4.41145
96 Ar 6.82333 6.72233 8.71015
97 Ar 6.47535 11.2601 0.000512585
98 Ar 6.66306 11.009 4.48095
99 Ar 6.8046 11.0429 9.03711
100 Ar 10.9681 2.32063 -0.0612348
101 Ar 11.0819 2.20934 4.35867
102 Ar 11.1912 2.33214 9.09728
103 Ar 11.0563 6.47528 0.105845
104 Ar 11.2711 6.63038 4.45832
105 Ar 10.8558 6.85715 8.97365
106 Ar 11.0683 11.0797 -0.119554
107 Ar 11.2081 11.2566 4.48858
108 Ar 11.1174 11.069 8.8284
ITEM: TIMESTEP
50010
ITEM: NUMBER OF ATOMS
108
ITEM: BOX BOUNDS pp pp pp
0.0000000000000000e+00 1.3349999400000000e+01
0.0000000000000000e+00 1.3349999400000000e+01
0.0000000000000000e+00 1.3349999400000000e+01
ITEM: ATOMS id element xu yu zu
1 Ar -0.127651 -0.0158327 -0.100462
2 Ar 0.121606 0.189497 4.55075
3 Ar -0.059515 0.124585 8.99497
4 Ar 0.0694793 4.47357 -0.0610979
5 Ar -0.0940407 4.16526 4.46569
6 Ar 0.0461028 4.76289 8.90431
7 Ar -0.287552 8.94278 0.145773
8 Ar 0.196 8.80844 4.40563
9 Ar 0.0407526 8.9442 8.67932
10 Ar 4.62437 0.288556 -0.0495938
11 Ar 4.35215 -0.41847 4.65159
12 Ar 4.46643 -0.102156 8.69823
13 Ar 4.44653 4.44487 0.0983928
14 Ar 4.33989 4.33824 4.62193
15 Ar 4.72096 4.48413 8.77184
16 Ar 4.45619 9.006 -0.065136
17 Ar 4.50542 8.9479 4.49019
18 Ar 4.50202 8.86667 8.91822
19 Ar 8.74303 0.0374653 0.0171437
20 Ar 8.90873 -0.172141 4.4708
21 Ar 8.97992 -0.039241 8.93426
22 Ar 8.81878 4.46197 0.0824316
23 Ar 9.04077 4.52557 4.30331
24 Ar 8.89423 4.62418 8.99658
25 Ar 8.91749 8.71064 0.113496
26 Ar 8.9276 8.99048 4.34071
27 Ar 8.88316 8.93155 8.93688
28 Ar -0.085087 2.07832 2.28699
29 Ar -0.00580486 2.29868 6.73291
30 Ar 0.00194175 2.37814 11.0426
31 Ar 0.0493567 6.49284 2.1846
32 Ar 0.0779261 6.76088 6.5918
33 Ar -0.108189 6.72705 11.1971
34 Ar -0.0689202 11.2368 2.2817
35 Ar -0.0549669 11.0843 6.62014
36 Ar -0.0711363 10.9782 11.1724
37 Ar 4.35528 1.97452 2.35316
38 Ar 4.5971 2.27073 6.60745
39 Ar 4.59977 2.44441 10.9048
40 Ar 4.45589 6.54323 2.25016
41 Ar 4.53259 6.59044 6.67399
42 Ar 4.57159 6.54676 11.0177
43 Ar 4.36916 11.1713 2.18977
44 Ar 4.54636 11.023 6.83386
45 Ar 4.52241 11.0695 11.0123
46 Ar 8.84581 2.16117 2.2837
47 Ar 8.99943 2.38585 6.68778
48 Ar 8.8316 2.15141 10.9416
49 Ar 8.61792 6.45885 2.14835
50 Ar 9.08609 6.7022 6.56072
51 Ar 8.85957 6.637 11.2584
52 Ar 9.00149 11.009 1.92362
53 Ar 8.89472 11.177 6.70558
54 Ar 8.87544 11.2314 11.2024
55 Ar 1.98792 0.147493 2.19614
56 Ar 2.2384 -0.100817 6.75864
57 Ar 2.25479 -0.111552 11.0014
58 Ar 2.29817 4.2691 2.23747
59 Ar 2.11736 4.56926 6.71131
60 Ar 2.2953 4.60526 11.0153
61 Ar 2.26424 8.84408 2.16262
62 Ar 2.21906 8.89837 6.703
63 Ar 2.19104 9.03011 11.0686
64 Ar 6.82187 -0.163354 2.14281
65 Ar 6.68984 -0.17071 6.74704
66 Ar 6.61249 0.216409 10.901
67 Ar 6.45951 4.43157 2.56719
68 Ar 6.85291 4.55712 6.21215
69 Ar 6.71834 4.52154 11.0298
70 Ar 6.49595 8.98609 2.20523
71 Ar 6.86076 9.0022 6.78995
72 Ar 6.83067 8.73771 11.1721
73 Ar 10.9617 -0.043205 2.15402
74 Ar 11.058 0.161339 6.80929
75 Ar 11.0746 -0.0630329 11.1391
76 Ar 11.1608 4.48281 2.25208
77 Ar 11.2338 4.36954 6.75061
78 Ar 11.0369 4.56226 11.1455
79 Ar 11.1257 8.75343 2.41512
80 Ar 11.2698 8.8625 6.57545
81 Ar 11.0056 8.93449 11.157
82 Ar 2.2226 2.25315 0.0855341
83 Ar 2.28981 2.0943 4.79126
84 Ar 2.24969 2.4212 8.84849
85 Ar 2.29285 6.53273 0.0952525
86 Ar 2.15169 6.68358 4.37848
87 Ar 2.39253 6.72449 8.98157
88 Ar 2.20603 11.1363 0.0154394
89 Ar 2.16089 11.135 4.47753
90 Ar 2.05699 11.2461 9.04253
91 Ar 6.75208 2.42178 -0.0304811
92 Ar 6.60713 1.86803 4.57157
93 Ar 6.81677 2.13875 8.65704
94 Ar 6.48053 6.63038 0.0359293
95 Ar 6.64885 6.97867 4.41575
96 Ar 6.82383 6.70423 8.70859
97 Ar 6.46457 11.2782 -0.0102738
98 Ar 6.65705 11.0244 4.48245
99 Ar 6.81664 11.0552 9.04168
100 Ar 10.959 2.30999 -0.0454427
101 Ar 11.0811 2.2184 4.36096
102 Ar 11.1925 2.33919 9.11321
103 Ar 11.0596 6.4806 0.0935597
104 Ar 11.2706 6.6191 4.46051
105 Ar 10.8291 6.86014 8.97863
106 Ar 11.0749 11.075 -0.12818
107 Ar 11.208 11.2699 4.4934
108 Ar 11.1188 11.0565 8.8333
ITEM: TIMESTEP
50020
ITEM: NUMBER OF ATOMS
108
ITEM: BOX BOUNDS pp pp pp
0.0000000000000000e+00 1.3349999400000000e+01
0.0000000000000000e+00 1.3349999400000000e+01
0.0000000000000000e+00 1.3349999400000000e+01
ITEM: ATOMS id element xu yu zu
1 Ar -0.115372 0.00239348 -0.101872
2 Ar 0.127567 0.175077 4.5442
3 Ar -0.0442235 0.128378 8.99213
4 Ar 0.074062 4.4781 -0.0664768
5 Ar -0.11598 4.17962 4.46655
6 Ar 0.0479376 4.76029 8.89878
7 Ar -0.280735 8.94471 0.129663
8 Ar 0.200067 8.79995 4.41566
9 Ar 0.033795 8.94494 8.68456
10 Ar 4.63039 0.30088 -0.0270805
11 Ar 4.33621 -0.420144 4.64506
12 Ar 4.48007 -0.0996109 8.69284
13 Ar 4.4514 4.44171 0.0964284
14 Ar 4.31902 4.35608 4.62931
15 Ar 4.71354 4.4645 8.76528
16 Ar 4.46809 9.0375 -0.0514878
17 Ar 4.50733 8.92951 4.47968
18 Ar 4.50718 8.86138 8.91714
19 Ar 8.73809 0.054185 0.0329235
20 Ar 8.90062 -0.192796 4.47013
21 Ar 8.9395 -0.0423097 8.93154
22 Ar 8.83606 4.48719 0.0908065
23 Ar 9.02476 4.53228 4.31381
24 Ar 8.88901 4.60985 9.00728
25 Ar 8.92054 8.7042 0.0955317
26 Ar 8.92882 8.98577 4.34088
27 Ar 8.87716 8.94968 8.93263
28 Ar -0.108541 2.08626 2.28808
29 Ar -0.0190134 2.27681 6.73273
30 Ar -0.0122001 2.39624 11.0539
31 Ar 0.0453512 6.50092 2.18877
32 Ar 0.082001 6.74592 6.58869
33 Ar -0.106609 6.72228 11.2102
34 Ar -0.0596348 11.2137 2.30147
35 Ar -0.0282041 11.081 6.624
36 Ar -0.0715704 10.9688 11.1581
37 Ar 4.34138 1.98411 2.33981
38 Ar 4.61298 2.26246 6.62262
39 Ar 4.62968 2.45213 10.9001
40 Ar 4.43578 6.53766 2.25471
41 Ar 4.53369 6.57626 6.67481
42 Ar 4.57237 6.53816 11.0215
43 Ar 4.36914 11.1681 2.20744
44 Ar 4.55465 11.0212 6.8343
45 Ar 4.52469 11.0794 10.9945
46 Ar 8.83508 2.12908 2.30049
47 Ar 9.00105 2.40193 6.69564
48 Ar 8.83562 2.15534 10.9508
49 Ar 8.61617 6.4685 2.1624
50 Ar 9.10322 6.72981 6.5609
51 Ar 8.83463 6.62984 11.2404
52 Ar 9.00351 11.0173 1.93087
53 Ar 8.92176 11.177 6.71474
54 Ar 8.88463 11.2267 11.233
55 Ar 1.97518 0.143423 2.19073
56 Ar 2.26896 -0.0940456 6.77545
57 Ar 2.25677 -0.0896554 11.0218
58 Ar 2.3181 4.27596 2.22942
59 Ar 2.13737 4.56959 6.71554
60 Ar 2.29203 4.60139 11.0198
61 Ar 2.26401 8.84229 2.14523
62 Ar 2.21261 8.88534 6.6815
63 Ar 2.19543 9.02688 11.0592
64 Ar 6.81343 -0.16666 2.13421
65 Ar 6.71239 -0.175542 6.71213
66 Ar 6.58891 0.212754 10.9136
67 Ar 6.46441 4.43382 2.58274
68 Ar 6.86072 4.57612 6.20346
69 Ar 6.71679 4.52052 11.0275
70 Ar 6.50268 8.97241 2.21843
71 Ar 6.85962 9.00504 6.78205
72 Ar 6.83109 8.72851 11.151
73 Ar 10.9596 -0.0310824 2.16096
74 Ar 11.0708 0.163593 6.81691
75 Ar 11.0599 -0.0747533 11.1333
76 Ar 11.1593 4.47694 2.2313
77 Ar 11.2226 4.35611 6.7275
78 Ar 11.0374 4.57502 11.1298
79 Ar 11.1466 8.74927 2.39669
80 Ar 11.2768 8.85924 6.59103
81 Ar 11.0185 8.93965 11.15
82 Ar 2.2117 2.25489 0.097673
83 Ar 2.30596 2.08155 4.76816
84 Ar 2.25393 2.42685 8.85928
85 Ar 2.26071 6.53555 0.0915849
86 Ar 2.14927 6.66297 4.36305
87 Ar 2.39162 6.71403 8.98354
88 Ar 2.21015 11.1224 0.0263539
89 Ar 2.15379 11.1199 4.4688
90 Ar 2.0383 11.2442 9.02037
91 Ar 6.77134 2.42844 -0.054353
92 Ar 6.60191 1.87071 4.5868
93 Ar 6.81416 2.14451 8.65379
94 Ar 6.46998 6.64191 0.0488531
95 Ar 6.63472 6.98478 4.42118
96 Ar 6.82341 6.6861 8.70807
97 Ar 6.45632 11.2936 -0.023666
98 Ar 6.6525 11.0408 4.48274
99 Ar 6.82707 11.0687 9.04585
100 Ar 10.9517 2.29845 -0.0297605
101 Ar 11.0788 2.22521 4.36488
102 Ar 11.1924 2.34636 9.12612
103 Ar 11.0637 6.489 0.081227
104 Ar 11.2696 6.60736 4.46246
105 Ar 10.8085 6.86109 8.98254
106 Ar 11.0816 11.0718 -0.134485
107 Ar 11.2075 11.2817 4.49781
108 Ar 11.1208 11.0447 8.83907
ITEM: TIMESTEP
50030
ITEM: NUMBER OF ATOMS
108
ITEM: BOX BOUNDS pp pp pp
0.0000000000000000e+00 1.3349999400000000e+01
0.0000000000000000e+00 1.3349999400000000e+01
0.0000000000000000e+00 1.3349999400000000e+01
ITEM: ATOMS id element xu yu zu
1 Ar -0.102263 0.0212015 -0.103448
2 Ar 0.130038 0.157584 4.5387
3 Ar -0.0289623 0.130822 8.98849
4 Ar 0.0774758 4.48046 -0.0711531
5 Ar -0.134027 4.19743 4.46657
6 Ar 0.0475954 4.75633 8.89384
7 Ar -0.26988 8.94454 0.113217
8 Ar 0.200921 8.79399 4.42416
9 Ar 0.0262224 8.94329 8.69452
10 Ar 4.63331 0.311142 -0.00660425
11 Ar 4.32246 -0.416143 4.63601
12 Ar 4.49336 -0.09448 8.69123
13 Ar 4.45668 4.43606 0.0926495
14 Ar 4.29771 4.37523 4.6341
15 Ar 4.70487 4.44487 8.75698
16 Ar 4.47888 9.06601 -0.0389198
17 Ar 4.50537 8.91158 4.47
18 Ar 4.51271 8.85594 8.9161
19 Ar 8.73519 0.0714414 0.045167
20 Ar 8.8925 -0.211465 4.46907
21 Ar 8.89956 -0.045214 8.92781
22 Ar 8.85275 4.51072 0.0978952
23 Ar 9.00916 4.53742 4.32534
24 Ar 8.88405 4.5923 9.0144
25 Ar 8.92279 8.69892 0.0773548
26 Ar 8.93051 8.98097 4.34189
27 Ar 8.87202 8.9687 8.92841
28 Ar -0.132739 2.09734 2.28624
29 Ar -0.0317423 2.25379 6.73476
30 Ar -0.0242874 2.41338 11.0675
31 Ar 0.0415076 6.51026 2.19341
32 Ar 0.0847368 6.72888 6.58706
33 Ar -0.103714 6.71974 11.2224
34 Ar -0.0504695 11.1897 2.32012
35 Ar -0.000922801 11.0806 6.62805
36 Ar -0.071997 10.9613 11.1432
37 Ar 4.3302 1.99492 2.32862
38 Ar 4.62684 2.25273 6.64083
39 Ar 4.65611 2.45736 10.8975
40 Ar 4.41452 6.53493 2.26077
41 Ar 4.53373 6.56503 6.67465
42 Ar 4.57238 6.53252 11.0268
43 Ar 4.36828 11.1663 2.22512
44 Ar 4.56113 11.0168 6.83457
45 Ar 4.52624 11.0905 10.9777
46 Ar 8.82325 2.0993 2.31755
47 Ar 9.00201 2.41629 6.70251
48 Ar 8.8404 2.16144 10.9627
49 Ar 8.61689 6.4824 2.17806
50 Ar 9.1183 6.75704 6.56046
51 Ar 8.81021 6.62324 11.2229
52 Ar 9.00371 11.0254 1.94159
53 Ar 8.95077 11.1753 6.72334
54 Ar 8.89187 11.2205 11.2635
55 Ar 1.96651 0.135538 2.18551
56 Ar 2.29734 -0.0868439 6.79316
57 Ar 2.25973 -0.0638601 11.0455
58 Ar 2.33576 4.28321 2.2243
59 Ar 2.1584 4.56921 6.71928
60 Ar 2.28851 4.59509 11.0263
61 Ar 2.26339 8.84118 2.12788
62 Ar 2.20932 8.87284 6.66017
63 Ar 2.20012 9.02043 11.0517
64 Ar 6.80196 -0.168139 2.13004
65 Ar 6.73571 -0.179825 6.67736
66 Ar 6.56531 0.206025 10.9285
67 Ar 6.47073 4.43273 2.59661
68 Ar 6.8675 4.59393 6.19889
69 Ar 6.71636 4.51867 11.0267
70 Ar 6.51159 8.95906 2.22944
71 Ar 6.85664 9.00633 6.77219
72 Ar 6.8289 8.72205 11.1306
73 Ar 10.9595 -0.0189398 2.16774
74 Ar 11.0848 0.164799 6.82303
75 Ar 11.0462 -0.0847932 11.1274
76 Ar 11.1575 4.46926 2.20971
77 Ar 11.2104 4.34569 6.70525
78 Ar 11.039 4.58644 11.1145
79 Ar 11.1674 8.74608 2.37711
80 Ar 11.281 8.85711 6.60558
81 Ar 11.0316 8.94328 11.1426
82 Ar 2.20054 2.25578 0.10531
83 Ar 2.32245 2.07087 4.74195
84 Ar 2.25873 2.43025 8.87014
85 Ar 2.22891 6.5416 0.08554
86 Ar 2.14963 6.64032 4.34828
87 Ar 2.38894 6.70474 8.98367
88 Ar 2.21373 11.1101 0.0367314
89 Ar 2.14596 11.1033 4.45933
90 Ar 2.02156 11.2395 8.99486
91 Ar 6.7892 2.43401 -0.0768057
92 Ar 6.59836 1.87507 4.59857
93 Ar 6.81072 2.15289 8.65097
94 Ar 6.46091 6.65358 0.0615446
95 Ar 6.62201 6.98821 4.4277
96 Ar 6.82212 6.66823 8.70829
97 Ar 6.45075 11.3062 -0.0394521
98 Ar 6.64939 11.0578 4.48175
99 Ar 6.83574 11.0831 9.04951
100 Ar 10.9461 2.28629 -0.0145556
101 Ar 11.0747 2.22955 4.37041
102 Ar 11.1908 2.35335 9.1357
103 Ar 11.0686 6.50049 0.0689011
104 Ar 11.268 6.59555 4.46394
105 Ar 10.7943 6.85999 8.98543
106 Ar 11.0885 11.0702 -0.137986
107 Ar 11.2066 11.2918 4.50194
108 Ar 11.1233 11.0341 8.84562
ITEM: TIMESTEP
50040
ITEM: NUMBER OF ATOMS
108
ITEM: BOX BOUNDS pp pp pp
0.0000000000000000e+00 1.3349999400000000e+01
0.0000000000000000e+00 1.3349999400000000e+01
0.0000000000000000e+00 1.3349999400000000e+01
ITEM: ATOMS id element xu yu zu
1 Ar -0.0887267 0.0401105 -0.105287
2 Ar 0.129234 0.137447 4.53433
3 Ar -0.0139578 0.132077 8.98445
4 Ar 0.0794756 4.48062 -0.0748177
5 Ar -0.147696 4.21817 4.46581
6 Ar 0.0450158 4.751 8.88944
7 Ar -0.25499 8.9424 0.0965044
8 Ar 0.198478 8.7903 4.431
9 Ar 0.0183487 8.93893 8.70888
10 Ar 4.63301 0.319316 0.0115555
11 Ar 4.31091 -0.406629 4.62464
12 Ar 4.5065 -0.0869712 8.69341
13 Ar 4.46233 4.42816 0.0871149
14 Ar 4.27663 4.39501 4.63636
15 Ar 4.69509 4.42577 8.74718
16 Ar 4.48854 9.09117 -0.0277158
17 Ar 4.49939 8.89454 4.46127
18 Ar 4.51851 8.85032 8.915
19 Ar 8.73439 0.0887982 0.0536763
20 Ar 8.88463 -0.227845 4.46756
21 Ar 8.86085 -0.0477746 8.92329
22 Ar 8.86849 4.53225 0.103687
23 Ar 8.99459 4.5409 4.33733
24 Ar 8.8795 4.57178 9.01767
25 Ar 8.92417 8.69499 0.0592595
26 Ar 8.93287 8.97627 4.34355
27 Ar 8.8678 8.9882 8.92433
28 Ar -0.157006 2.11128 2.2817
29 Ar -0.0433995 2.23025 6.73857
30 Ar -0.0342843 2.42923 11.0833
31 Ar 0.0377239 6.52061 2.19838
32 Ar 0.0860924 6.70998 6.58695
33 Ar -0.0995003 6.71939 11.2333
34 Ar -0.0417212 11.165 2.33721
35 Ar 0.0263105 11.0829 6.63216
36 Ar -0.0721527 10.9561 11.1281
37 Ar 4.32203 2.00695 2.31987
38 Ar 4.63824 2.24186 6.66132
39 Ar 4.6785 2.46002 10.8971
40 Ar 4.39261 6.53497 2.26794
41 Ar 4.53271 6.55707 6.67376
42 Ar 4.57151 6.52983 11.0337
43 Ar 4.36674 11.1656 2.24253
44 Ar 4.56574 11.0101 6.83454
45 Ar 4.52672 11.1029 10.962
46 Ar 8.81032 2.07251 2.33488
47 Ar 9.00219 2.4285 6.70835
48 Ar 8.84579 2.16933 10.9769
49 Ar 8.62012 6.50044 2.19518
50 Ar 9.13095 6.78348 6.55948
51 Ar 8.78674 6.61734 11.2061
52 Ar 9.00219 11.0329 1.95534
53 Ar 8.98133 11.1719 6.73117
54 Ar 8.89678 11.2125 11.2936
55 Ar 1.96176 0.124099 2.18049
56 Ar 2.32311 -0.0790312 6.81114
57 Ar 2.26369 -0.0349784 11.0718
58 Ar 2.35061 4.29076 2.22201
59 Ar 2.17983 4.56773 6.72259
60 Ar 2.28487 4.58643 11.0348
61 Ar 2.26233 8.84061 2.11094
62 Ar 2.20931 8.86075 6.63948
63 Ar 2.20524 9.01098 11.0461
64 Ar 6.7874 -0.167833 2.13045
65 Ar 6.75931 -0.183578 6.64354
66 Ar 6.54232 0.196474 10.9456
67 Ar 6.47818 4.42842 2.60865
68 Ar 6.87289 4.61034 6.19867
69 Ar 6.71703 4.5162 11.0274
70 Ar 6.52264 8.94644 2.23805
71 Ar 6.85196 9.00619 6.76064
72 Ar 6.82389 8.7185 11.111
73 Ar 10.9617 -0.00725734 2.17431
74 Ar 11.0996 0.164885 6.82786
75 Ar 11.0338 -0.0929511 11.1212
76 Ar 11.1552 4.46006 2.18775
77 Ar 11.1974 4.33851 6.68438
78 Ar 11.0416 4.5965 11.1
79 Ar 11.1876 8.74391 2.35683
80 Ar 11.2824 8.85625 6.61879
81 Ar 11.0445 8.94514 11.1349
82 Ar 2.18922 2.2559 0.108416
83 Ar 2.33883 2.06233 4.71325
84 Ar 2.26388 2.43135 8.88104
85 Ar 2.19817 6.55083 0.0771572
86 Ar 2.1524 6.61609 4.3344
87 Ar 2.38462 6.69677 8.98197
88 Ar 2.21661 11.0995 0.0462438
89 Ar 2.13785 11.0855 4.44937
90 Ar 2.00728 11.2324 8.96701
91 Ar 6.80561 2.43867 -0.0973903
92 Ar 6.59644 1.88128 4.60652
93 Ar 6.80672 2.16354 8.64877
94 Ar 6.45335 6.66528 0.0739212
95 Ar 6.61101 6.98878 4.43524
96 Ar 6.82 6.65091 8.70897
97 Ar 6.44797 11.3157 -0.0573132
98 Ar 6.64763 11.0747 4.47937
99 Ar 6.84253 11.0983 9.05252
100 Ar 10.9421 2.27378 -0.000173079
101 Ar 11.0689 2.23131 4.37749
102 Ar 11.1878 2.35984 9.14174
103 Ar 11.0741 6.515 0.0566424
104 Ar 11.2657 6.58405 4.4647
105 Ar 10.7863 6.85685 8.98735
106 Ar 11.0959 11.0704 -0.138272
107 Ar 11.2056 11.2998 4.50586
108 Ar 11.1265 11.0251 8.85286
ITEM: TIMESTEP
50050
ITEM: NUMBER OF ATOMS
108
ITEM: BOX BOUNDS pp pp pp
0.0000000000000000e+00 1.3349999400000000e+01
0.0000000000000000e+00 1.3349999400000000e+01
0.0000000000000000e+00 1.3349999400000000e+01
ITEM: ATOMS id element xu yu zu
1 Ar -0.0751651 0.0586629 -0.10746
2 Ar 0.125454 0.115198 4.53111
3 Ar 0.00060031 0.132293 8.98043
4 Ar 0.0798545 4.47867 -0.0771592
5 Ar -0.156667 4.24118 4.46436
6 Ar 0.0402245 4.74428 8.88556
7 Ar -0.23615 8.93848 0.0795824
8 Ar 0.192727 8.78849 4.43618
9 Ar 0.0104668 8.93164 8.72714
10 Ar 4.62942 0.32537 0.0272018
11 Ar 4.30153 -0.391911 4.61127
12 Ar 4.51967 -0.0773655 8.69925
13 Ar 4.46826 4.4183 0.079965
14 Ar 4.25656 4.41472 4.63619
15 Ar 4.68431 4.40771 8.7362
16 Ar 4.4971 9.11267 -0.0181006
17 Ar 4.4894 8.87881 4.45355
18 Ar 4.52446 8.84451 8.91377
19 Ar 8.73565 0.105787 0.0584383
20 Ar 8.87731 -0.241695 4.46555
21 Ar 8.82411 -0.049749 8.91826
22 Ar 8.88295 4.55158 0.108206
23 Ar 8.98159 4.54268 4.34921
24 Ar 8.87547 4.54865 9.01692
25 Ar 8.92463 8.69258 0.0415056
26 Ar 8.93608 8.97187 4.3457
27 Ar 8.86458 9.0077 8.92047
28 Ar -0.180613 2.12769 2.2748
29 Ar -0.0534596 2.20684 6.74368
30 Ar -0.0422517 2.44347 11.1008
31 Ar 0.0339164 6.53167 2.20356
32 Ar 0.0860665 6.68956 6.58831
33 Ar -0.0939904 6.72114 11.2426
34 Ar -0.0336726 11.1401 2.35231
35 Ar 0.0529053 11.0879 6.63621
36 Ar -0.071761 10.9535 11.113
37 Ar 4.31706 2.0202 2.31372
38 Ar 4.6468 2.23011 6.68319
39 Ar 4.69642 2.46009 10.8991
40 Ar 4.37059 6.53767 2.27574
41 Ar 4.53064 6.55265 6.67238
42 Ar 4.56966 6.52998 11.0419
43 Ar 4.36472 11.1661 2.25938
44 Ar 4.56847 11.0014 6.8341
45 Ar 4.52574 11.1161 10.9474
46 Ar 8.79632 2.0493 2.35245
47 Ar 9.00148 2.43811 6.71312
48 Ar 8.85166 2.1786 10.9931
49 Ar 8.62589 6.52236 2.21356
50 Ar 9.14082 6.80874 6.55807
51 Ar 8.76465 6.61224 11.1902
52 Ar 8.99907 11.0396 1.97165
53 Ar 9.01299 11.1668 6.73807
54 Ar 8.89908 11.2031 11.3227
55 Ar 1.96071 0.109472 2.17572
56 Ar 2.34593 -0.0704191 6.82873
57 Ar 2.26865 -0.0037978 11.0998
58 Ar 2.36218 4.29845 2.2223
59 Ar 2.20104 4.56482 6.72556
60 Ar 2.28128 4.57556 11.0451
61 Ar 2.26075 8.84043 2.09479
62 Ar 2.21252 8.84895 6.6199
63 Ar 2.21088 8.99886 11.0424
64 Ar 6.76984 -0.16585 2.13534
65 Ar 6.78266 -0.186818 6.61147
66 Ar 6.52053 0.184422 10.9647
67 Ar 6.48645 4.42114 2.61867
68 Ar 6.87656 4.62513 6.20299
69 Ar 6.71868 4.5133 11.0296
70 Ar 6.53569 8.93495 2.24419
71 Ar 6.84577 9.00476 6.74771
72 Ar 6.81596 8.71797 11.0926
73 Ar 10.9664 0.00351508 2.18061
74 Ar 11.1146 0.163746 6.8316
75 Ar 11.0228 -0.0990744 11.1148
76 Ar 11.1523 4.44968 2.16589
77 Ar 11.1838 4.33467 6.66535
78 Ar 11.045 4.60523 11.0868
79 Ar 11.2066 8.74281 2.33625
80 Ar 11.2817 8.85677 6.63042
81 Ar 11.0571 8.94504 11.1269
82 Ar 2.17788 2.25537 0.107144
83 Ar 2.35459 2.05593 4.6827
84 Ar 2.26917 2.4301 8.89191
85 Ar 2.16913 6.56306 0.066543
86 Ar 2.15703 6.59089 4.32171
87 Ar 2.37879 6.69016 8.97857
88 Ar 2.21864 11.0911 0.054565
89 Ar 2.13001 11.0668 4.43917
90 Ar 1.99597 11.2232 8.93787
91 Ar 6.82051 2.44255 -0.115656
92 Ar 6.59603 1.8895 4.61048
93 Ar 6.80248 2.17605 8.64744
94 Ar 6.44732 6.67686 0.0859255
95 Ar 6.60195 6.98635 4.44367
96 Ar 6.81712 6.6344 8.7099
97 Ar 6.44806 11.3224 -0.0768218
98 Ar 6.64704 11.0908 4.47555
99 Ar 6.84727 11.1139 9.05473
100 Ar 10.9397 2.26114 0.0130647
101 Ar 11.0614 2.2305 4.38604
102 Ar 11.1835 2.36557 9.14414
103 Ar 11.0803 6.53234 0.0445176
104 Ar 11.2626 6.57326 4.46452
105 Ar 10.7845 6.85174 8.98831
106 Ar 11.1038 11.0723 -0.135038
107 Ar 11.2047 11.3055 4.50963
108 Ar 11.1304 11.0181 8.86071
ITEM: TIMESTEP
50060
ITEM: NUMBER OF ATOMS
108
ITEM: BOX BOUNDS pp pp pp
0.0000000000000000e+00 1.3349999400000000e+01
0.0000000000000000e+00 1.3349999400000000e+01
0.0000000000000000e+00 1.3349999400000000e+01
ITEM: ATOMS id element xu yu zu
1 Ar -0.061972 0.0764263 -0.110001
2 Ar 0.119064 0.0914436 4.52893
3 Ar 0.0145632 0.131595 8.97685
4 Ar 0.0784554 4.47481 -0.0778792
5 Ar -0.160792 4.26576 4.46228
6 Ar 0.0333284 4.73614 8.8822
7 Ar -0.213541 8.93308 0.0625034
8 Ar 0.18373 8.78814 4.43976
9 Ar 0.00283655 8.92129 8.74871
10 Ar 4.62257 0.329272 0.0402319
11 Ar 4.29421 -0.372421 4.59629
12 Ar 4.53297 -0.065999 8.70859
13 Ar 4.47434 4.40684 0.0714147
14 Ar 4.23829 4.43367 4.63372
15 Ar 4.6727 4.39123 8.72446
16 Ar 4.50458 9.1303 -0.0102361
17 Ar 4.47554 8.86469 4.44682
18 Ar 4.53044 8.83848 8.91235
19 Ar 8.73882 0.121925 0.059621
20 Ar 8.8709 -0.252829 4.46294
21 Ar 8.79 -0.050851 8.91299
22 Ar 8.89585 4.56864 0.111507
23 Ar 8.97059 4.54276 4.3605
24 Ar 8.87206 4.52339 9.01213
25 Ar 8.92413 8.69183 0.0243198
26 Ar 8.94026 8.96794 4.34818
27 Ar 8.86238 9.02666 8.91695
28 Ar -0.20281 2.14608 2.26592
29 Ar -0.0614722 2.18428 6.74962
30 Ar -0.048343 2.45578 11.1196
31 Ar 0.030028 6.54317 2.20877
32 Ar 0.0846931 6.66803 6.59107
33 Ar -0.0872323 6.72476 11.2498
34 Ar -0.0265855 11.115 2.36504
35 Ar 0.0782649 11.0952 6.64008
36 Ar -0.0705486 10.9538 11.0982
37 Ar 4.31544 2.03464 2.31017
38 Ar 4.65225 2.21773 6.70547
39 Ar 4.70953 2.4576 10.9033
40 Ar 4.34909 6.54287 2.28365
41 Ar 4.52758 6.55196 6.67076
42 Ar 4.56675 6.53277 11.0513
43 Ar 4.3624 11.1673 2.27537
44 Ar 4.56932 10.9912 6.83311
45 Ar 4.52293 11.13 10.9339
46 Ar 8.78137 2.03009 2.37016
47 Ar 8.99977 2.44473 6.71679
48 Ar 8.85793 2.18886 11.011
49 Ar 8.6342 6.54774 2.23294
50 Ar 9.14761 6.83246 6.55635
51 Ar 8.74431 6.60805 11.1755
52 Ar 8.9945 11.0454 1.99006
53 Ar 9.04522 11.1598 6.74385
54 Ar 8.89865 11.1923 11.3506
55 Ar 1.96306 0.0921045 2.17122
56 Ar 2.36558 -0.0608351 6.84531
57 Ar 2.2746 0.0289453 11.129
58 Ar 2.3701 4.30611 2.22474
59 Ar 2.22142 4.56014 6.72832
60 Ar 2.2779 4.5627 11.0571
61 Ar 2.25862 8.84049 2.0798
62 Ar 2.21876 8.8373 6.60183
63 Ar 2.21715 8.98445 11.0406
64 Ar 6.74946 -0.16235 2.14437
65 Ar 6.80523 -0.189548 6.58191
66 Ar 6.50056 0.170257 10.9856
67 Ar 6.49528 4.41126 2.62651
68 Ar 6.87819 4.63809 6.21197
69 Ar 6.72115 4.51017 11.0333
70 Ar 6.55052 8.92494 2.24787
71 Ar 6.83829 9.00221 6.7337
72 Ar 6.80509 8.7205 11.0756
73 Ar 10.9737 0.0129756 2.18663
74 Ar 11.1292 0.161264 6.83443
75 Ar 11.0134 -0.103071 11.108
76 Ar 11.1486 4.43853 2.14459
77 Ar 11.1701 4.33424 6.64855
78 Ar 11.0493 4.6127 11.0751
79 Ar 11.2241 8.74285 2.31571
80 Ar 11.2793 8.85876 6.64032
81 Ar 11.069 8.94291 11.1187
82 Ar 2.16671 2.25437 0.101824
83 Ar 2.36919 2.0516 4.65094
84 Ar 2.27439 2.42652 8.90274
85 Ar 2.14239 6.57805 0.0538688
86 Ar 2.16287 6.56542 4.31051
87 Ar 2.37158 6.6849 8.97362
88 Ar 2.21972 11.0849 0.0613817
89 Ar 2.12299 11.0477 4.42899
90 Ar 1.98812 11.2123 8.90847
91 Ar 6.83377 2.44574 -0.131157
92 Ar 6.59694 1.89989 4.61045
93 Ar 6.79832 2.19003 8.64725
94 Ar 6.44283 6.68816 0.0975185
95 Ar 6.59493 6.98092 4.45277
96 Ar 6.81357 6.6189 8.71087
97 Ar 6.45101 11.3263 -0.0974485
98 Ar 6.64739 11.1055 4.47024
99 Ar 6.84983 11.1295 9.05599
100 Ar 10.9387 2.24861 0.0248591
101 Ar 11.0523 2.22719 4.3959
102 Ar 11.178 2.37023 9.1429
103 Ar 11.0871 6.55228 0.032599
104 Ar 11.2587 6.56355 4.46322
105 Ar 10.7885 6.84476 8.98832
106 Ar 11.1126 11.0761 -0.128102
107 Ar 11.204 11.3088 4.51326
108 Ar 11.1349 11.0135 8.86909
ITEM: TIMESTEP
50070
ITEM: NUMBER OF ATOMS
108
ITEM: BOX BOUNDS pp pp pp
0.0000000000000000e+00 1.3349999400000000e+01
0.0000000000000000e+00 1.3349999400000000e+01
0.0000000000000000e+00 1.3349999400000000e+01
ITEM: ATOMS id element xu yu zu
1 Ar -0.0495245 0.0929947 -0.1129
2 Ar 0.110477 0.066827 4.52764
3 Ar 0.0278232 0.13008 8.97416
4 Ar 0.0751802 4.46934 -0.0767078
5 Ar -0.160082 4.2911 4.45964
6 Ar 0.0245065 4.72653 8.8794
7 Ar -0.187438 8.92654 0.0453211
8 Ar 0.171612 8.78876 4.44193
9 Ar -0.0043203 8.90783 8.77293
10 Ar 4.61252 0.330994 0.0506449
11 Ar 4.28886 -0.348683 4.58014
12 Ar 4.54649 -0.0532422 8.72117
13 Ar 4.48047 4.39415 0.0617422
14 Ar 4.22265 4.45121 4.62909
15 Ar 4.6604 4.37682 8.71245
16 Ar 4.511 9.14395 -0.00422096
17 Ar 4.45817 8.85243 4.44096
18 Ar 4.53633 8.83226 8.91074
19 Ar 8.74367 0.136736 0.0575537
20 Ar 8.86579 -0.261126 4.45968
21 Ar 8.75915 -0.0507751 8.90776
22 Ar 8.90693 4.58344 0.113674
23 Ar 8.96189 4.54119 4.3708
24 Ar 8.86939 4.49661 9.00343
25 Ar 8.92265 8.69282 0.0078999
26 Ar 8.94549 8.96466 4.35086
27 Ar 8.86123 9.04458 8.91386
28 Ar -0.222868 2.16596 2.25553
29 Ar -0.0670677 2.16323 6.75591
30 Ar -0.0527936 2.46585 11.139
31 Ar 0.0260335 6.55481 2.21388
32 Ar 0.0820359 6.64585 6.59509
33 Ar -0.079306 6.72997 11.2545
34 Ar -0.0206907 11.0903 2.37501
35 Ar 0.101807 11.1044 6.64367
36 Ar -0.0682604 10.9572 11.0841
37 Ar 4.3172 2.05022 2.30909
38 Ar 4.65442 2.20489 6.72714
39 Ar 4.71764 2.45268 10.9098
40 Ar 4.32875 6.55039 2.2911
41 Ar 4.52358 6.5551 6.66913
42 Ar 4.56271 6.53798 11.0617
43 Ar 4.35997 11.1692 2.29017
44 Ar 4.56832 10.98 6.83144
45 Ar 4.5179 11.144 10.9217
46 Ar 8.76564 2.01521 2.38782
47 Ar 8.99696 2.44797 6.71929
48 Ar 8.86453 2.19976 11.03
49 Ar 8.64505 6.57607 2.25305
50 Ar 9.15109 6.85427 6.55452
51 Ar 8.72609 6.60488 11.1618
52 Ar 8.98859 11.0503 2.01007
53 Ar 9.07746 11.1513 6.74834
54 Ar 8.89552 11.1802 11.3766
55 Ar 1.96849 0.0724964 2.16705
56 Ar 2.38197 -0.0501452 6.86031
57 Ar 2.28149 0.0625701 11.1585
58 Ar 2.37405 4.3135 2.22879
59 Ar 2.24038 4.55347 6.73102
60 Ar 2.27487 4.54816 11.0705
61 Ar 2.25593 8.84069 2.0663
62 Ar 2.22767 8.82565 6.58563
63 Ar 2.2241 8.96817 11.0407
64 Ar 6.72654 -0.157514 2.15704
65 Ar 6.8265 -0.191746 6.55554
66 Ar 6.48296 0.154426 11.0079
67 Ar 6.50443 4.3992 2.63199
68 Ar 6.87758 4.64899 6.22564
69 Ar 6.7242 4.50698 11.0383
70 Ar 6.56684 8.91669 2.24922
71 Ar 6.82974 8.99874 6.71893
72 Ar 6.79134 8.72606 11.06
73 Ar 10.9834 0.0207857 2.19236
74 Ar 11.1431 0.157306 6.83653
75 Ar 11.0058 -0.104919 11.1008
76 Ar 11.144 4.42707 2.12432
77 Ar 11.1564 4.33718 6.63427
78 Ar 11.0541 4.61898 11.0652
79 Ar 11.2397 8.7441 2.29549
80 Ar 11.2757 8.86228 6.6484
81 Ar 11.0799 8.9388 11.1106
82 Ar 2.15594 2.25309 0.092948
83 Ar 2.38207 2.04927 4.61859
84 Ar 2.27932 2.42065 8.91348
85 Ar 2.11847 6.59545 0.0393668
86 Ar 2.16914 6.54047 4.30116
87 Ar 2.36315 6.68089 8.96732
88 Ar 2.21979 11.0812 0.066404
89 Ar 2.11737 11.0286 4.41908
90 Ar 1.98413 11.1997 8.87979
91 Ar 6.84528 2.44826 -0.143468
92 Ar 6.59892 1.91256 4.60668
93 Ar 6.79453 2.20511 8.64849
94 Ar 6.43986 6.69896 0.108671
95 Ar 6.58998 6.97257 4.46227
96 Ar 6.80942 6.6046 8.71175
97 Ar 6.45674 11.3276 -0.118575
98 Ar 6.64843 11.1181 4.46343
99 Ar 6.85005 11.1448 9.05614
100 Ar 10.939 2.23639 0.0349385
101 Ar 11.042 2.22155 4.40692
102 Ar 11.1715 2.37359 9.13813
103 Ar 11.0944 6.5745 0.0209622
104 Ar 11.2538 6.55527 4.46061
105 Ar 10.7978 6.83603 8.98736
106 Ar 11.1223 11.0814 -0.117425
107 Ar 11.2036 11.3095 4.51671
108 Ar 11.1401 11.0115 8.87793
ITEM: TIMESTEP
50080
ITEM: NUMBER OF ATOMS
108
ITEM: BOX BOUNDS pp pp pp
0.0000000000000000e+00 1.3349999400000000e+01
0.0000000000000000e+00 1.3349999400000000e+01
0.0000000000000000e+00 1.3349999400000000e+01
ITEM: ATOMS id element xu yu zu
1 Ar -0.038175 0.10799 -0.116104
2 Ar 0.100137 0.0420003 4.52702
3 Ar 0.0403124 0.127815 8.97274
4 Ar 0.0699946 4.4627 -0.0734222
5 Ar -0.154695 4.31641 4.4565
6 Ar 0.0140016 4.71537 8.87721
7 Ar -0.158218 8.91928 0.0280954
8 Ar 0.156566 8.7899 4.44295
9 Ar -0.0108202 8.89137 8.79907
10 Ar 4.59945 0.330518 0.0585435
11 Ar 4.28537 -0.321288 4.56329
12 Ar 4.56019 -0.0394771 8.73665
13 Ar 4.48651 4.38061 0.0512738
14 Ar 4.21044 4.46673 4.6225
15 Ar 4.64759 4.36493 8.7007
16 Ar 4.51639 9.15358 -9.15738e-05
17 Ar 4.43777 8.84214 4.43582
18 Ar 4.54199 8.82585 8.90891
19 Ar 8.74992 0.149773 0.0526956
20 Ar 8.86239 -0.266523 4.4557
21 Ar 8.73211 -0.0492274 8.90284
22 Ar 8.91601 4.59613 0.114809
23 Ar 8.95562 4.53807 4.3798
24 Ar 8.86751 4.46898 8.99107
25 Ar 8.92018 8.69559 -0.00758051
26 Ar 8.95181 8.96221 4.35368
27 Ar 8.86111 9.06094 8.91133
28 Ar -0.240105 2.18678 2.24409
29 Ar -0.0699624 2.14435 6.76209
30 Ar -0.0559038 2.4734 11.1584
31 Ar 0.0219405 6.56633 2.21871
32 Ar 0.0781817 6.62355 6.60022
33 Ar -0.0703258 6.73637 11.2563
34 Ar -0.0161747 11.0662 2.38193
35 Ar 0.122985 11.1152 6.64686
36 Ar -0.0646728 10.9636 11.0709
37 Ar 4.32235 2.06684 2.31019
38 Ar 4.65325 2.19172 6.74723
39 Ar 4.7207 2.44548 10.9184
40 Ar 4.3102 6.55999 2.29752
41 Ar 4.51869 6.56205 6.66768