ITEM: TIMESTEP
62000
ITEM: NUMBER OF ATOMS
108
ITEM: BOX BOUNDS pp pp pp
0.0000000000000000e+00 1.3349999400000000e+01
0.0000000000000000e+00 1.3349999400000000e+01
0.0000000000000000e+00 1.3349999400000000e+01
ITEM: ATOMS id element xu yu zu
1 Ar 0.0513063 0.00909359 0.0955467
2 Ar 0.188161 -0.206073 4.50656
3 Ar -0.133946 0.0696144 8.927
4 Ar 0.0257037 4.34878 0.0441215
5 Ar 0.00525193 4.34155 4.35399
6 Ar 0.0365612 4.55828 8.73621
7 Ar 0.103507 8.72605 -0.110797
8 Ar -0.0756882 9.00217 4.39057
9 Ar -0.0744708 8.7976 9.10768
10 Ar 4.35285 0.00769402 0.048873
11 Ar 4.31322 0.0179436 4.45043
12 Ar 4.49241 -0.11627 8.9813
13 Ar 4.58251 4.44729 0.0254952
14 Ar 4.53321 4.44181 4.5626
15 Ar 4.43162 4.59641 8.82204
16 Ar 4.4008 8.746 0.0451411
17 Ar 4.4659 8.88278 4.47426
18 Ar 4.48907 8.80401 8.92666
19 Ar 8.8127 0.0363964 0.159126
20 Ar 8.90715 -0.0642824 4.4375
21 Ar 8.84553 0.0398207 8.87592
22 Ar 8.9898 4.49614 -0.0936826
23 Ar 9.03795 4.44036 4.62852
24 Ar 8.7656 4.52818 8.82288
25 Ar 8.82106 8.85524 0.0176333
26 Ar 8.96513 8.96814 4.2987
27 Ar 8.83434 8.85973 8.77266
28 Ar 0.109883 2.14657 2.18323
29 Ar -0.10636 2.22547 6.8782
30 Ar 0.0455833 2.49894 10.9177
31 Ar 0.174672 6.584 2.36446
32 Ar 0.0357136 6.66464 6.48884
33 Ar -0.070016 6.71875 11.0658
34 Ar -0.122671 11.1 2.00448
35 Ar 0.0610543 11.0998 6.97052
36 Ar -0.0360333 11.113 11.0905
37 Ar 4.46568 2.29676 2.24358
38 Ar 4.34577 2.37454 6.87331
39 Ar 4.60854 2.11345 10.908
40 Ar 4.31559 6.6545 2.37871
41 Ar 4.52723 6.72667 6.59282
42 Ar 4.44029 6.68537 11.085
43 Ar 4.57644 10.9267 2.24861
44 Ar 4.35236 11.048 6.85955
45 Ar 4.54144 10.8197 11.3449
46 Ar 8.9067 2.28861 2.50915
47 Ar 8.90378 2.20734 6.58556
48 Ar 8.93374 2.34611 11.0948
49 Ar 8.99586 6.34708 2.21965
50 Ar 8.91979 6.66627 6.5873
51 Ar 8.9079 6.57222 11.1032
52 Ar 8.88822 11.1874 2.13356
53 Ar 8.90945 11.3163 6.68138
54 Ar 8.851 11.0571 11.1588
55 Ar 2.1617 0.0070099 2.15357
56 Ar 2.16058 0.140883 6.73679
57 Ar 2.03838 0.153614 11.0003
58 Ar 2.36056 4.35504 2.29187
59 Ar 2.17088 4.63475 6.5962
60 Ar 2.32736 4.55995 11.169
61 Ar 2.25726 9.07423 2.17125
62 Ar 2.04461 8.76697 6.81095
63 Ar 2.11021 8.76213 11.1259
64 Ar 6.63836 -0.0174531 2.29522
65 Ar 6.52063 -0.0116986 6.62488
66 Ar 6.85327 0.0646733 10.9746
67 Ar 6.80339 4.52801 2.22198
68 Ar 6.70385 4.62611 6.57897
69 Ar 6.69309 4.34594 11.003
70 Ar 6.74887 8.77597 2.35095
71 Ar 6.76865 9.00711 6.63321
72 Ar 6.68613 8.83803 11.3226
73 Ar 11.0308 0.15729 2.19208
74 Ar 11.0653 -0.10302 6.68767
75 Ar 11.1844 0.202194 11.1464
76 Ar 11.2201 4.3649 2.29953
77 Ar 11.1695 4.50444 6.74453
78 Ar 11.1341 4.4731 10.9914
79 Ar 10.9997 8.95465 2.16559
80 Ar 11.1874 8.95977 6.68553
81 Ar 10.8913 8.81176 11.2701
82 Ar 2.16337 2.23136 -0.204036
83 Ar 2.19415 2.22217 4.55346
84 Ar 2.29739 2.35623 8.88556
85 Ar 2.22423 6.54802 -0.0027143
86 Ar 2.18851 6.73428 4.42502
87 Ar 2.31841 6.6979 8.90962
88 Ar 2.25606 11.106 -0.233029
89 Ar 2.22315 11.2875 4.37688
90 Ar 2.21765 11.0806 9.06929
91 Ar 6.78943 2.37295 -0.0788695
92 Ar 6.49766 2.21985 4.53745
93 Ar 6.73904 2.21995 8.72493
94 Ar 6.63606 6.64987 -0.127412
95 Ar 6.83536 6.76378 4.52365
96 Ar 6.78147 6.81687 8.99365
97 Ar 6.52515 11.1999 0.0450089
98 Ar 6.64113 11.1618 4.37454
99 Ar 6.56754 10.968 8.86031
100 Ar 11.1395 2.17368 0.0135001
101 Ar 11.1985 2.00908 4.61098
102 Ar 10.975 2.22295 8.812
103 Ar 11.1236 6.49687 0.038939
104 Ar 11.2264 6.64671 4.22677
105 Ar 11.1013 6.73932 8.80518
106 Ar 11.0977 11.34 -0.0649193
107 Ar 11.193 11.1712 4.52319
108 Ar 11.02 10.9568 9.02837
ITEM: TIMESTEP
62010
ITEM: NUMBER OF ATOMS
108
ITEM: BOX BOUNDS pp pp pp
0.0000000000000000e+00 1.3349999400000000e+01
0.0000000000000000e+00 1.3349999400000000e+01
0.0000000000000000e+00 1.3349999400000000e+01
ITEM: ATOMS id element xu yu zu
1 Ar 0.0721346 0.00247646 0.0896977
2 Ar 0.192186 -0.212114 4.48874
3 Ar -0.141764 0.053591 8.91585
4 Ar 0.02268 4.34976 0.030138
5 Ar 0.000109232 4.34084 4.37618
6 Ar 0.0517899 4.55082 8.73855
7 Ar 0.0927815 8.7352 -0.0960954
8 Ar -0.0723777 8.99475 4.39201
9 Ar -0.0773911 8.79704 9.12034
10 Ar 4.35302 0.0199954 0.0612664
11 Ar 4.31088 0.00361296 4.44714
12 Ar 4.49642 -0.13348 8.96569
13 Ar 4.58546 4.43189 0.028024
14 Ar 4.53142 4.44434 4.56422
15 Ar 4.44045 4.58233 8.83068
16 Ar 4.41809 8.73381 0.0486128
17 Ar 4.45835 8.8931 4.48644
18 Ar 4.47916 8.79997 8.93901
19 Ar 8.80534 0.0265032 0.147778
20 Ar 8.91401 -0.0730906 4.42664
21 Ar 8.85704 0.0391932 8.90005
22 Ar 8.97487 4.50132 -0.100778
23 Ar 9.0314 4.42857 4.6081
24 Ar 8.75742 4.52296 8.81319
25 Ar 8.83749 8.86511 -0.00805187
26 Ar 8.96472 8.97141 4.29349
27 Ar 8.83026 8.86304 8.73719
28 Ar 0.0812486 2.13997 2.16947
29 Ar -0.0926798 2.24179 6.85901
30 Ar 0.0706509 2.52607 10.8971
31 Ar 0.147697 6.58158 2.36501
32 Ar 0.0261579 6.67466 6.49204
33 Ar -0.0727604 6.72868 11.0788
34 Ar -0.102709 11.103 2.01257
35 Ar 0.0733214 11.0868 6.97284
36 Ar -0.0402387 11.1078 11.0664
37 Ar 4.44556 2.29074 2.23447
38 Ar 4.33548 2.38196 6.86607
39 Ar 4.61956 2.10678 10.903
40 Ar 4.30465 6.65018 2.37685
41 Ar 4.53672 6.74032 6.59533
42 Ar 4.42212 6.70565 11.0775
43 Ar 4.57313 10.924 2.25991
44 Ar 4.34147 11.0581 6.85289
45 Ar 4.55893 10.8371 11.3442
46 Ar 8.93206 2.28686 2.51229
47 Ar 8.90039 2.21017 6.57588
48 Ar 8.91922 2.3429 11.0954
49 Ar 8.99386 6.34996 2.20685
50 Ar 8.90396 6.67719 6.59064
51 Ar 8.91612 6.55924 11.1107
52 Ar 8.89187 11.1651 2.13098
53 Ar 8.92247 11.2985 6.69633
54 Ar 8.85091 11.0535 11.145
55 Ar 2.15857 0.00231622 2.15447
56 Ar 2.15304 0.133096 6.72996
57 Ar 2.03999 0.149891 11.0154
58 Ar 2.3596 4.37728 2.27605
59 Ar 2.17218 4.63449 6.60661
60 Ar 2.32589 4.55141 11.1714
61 Ar 2.24034 9.05534 2.17927
62 Ar 2.06092 8.78892 6.81631
63 Ar 2.13381 8.76052 11.1167
64 Ar 6.6464 -0.00297677 2.32779
65 Ar 6.50794 0.00423206 6.61899
66 Ar 6.84463 0.0707822 10.9918
67 Ar 6.82069 4.53551 2.21018
68 Ar 6.70011 4.61574 6.59171
69 Ar 6.68681 4.34814 11.0148
70 Ar 6.74874 8.78529 2.34895
71 Ar 6.76247 9.01964 6.63462
72 Ar 6.67291 8.82254 11.3244
73 Ar 11.0285 0.131799 2.16559
74 Ar 11.0472 -0.113924 6.69422
75 Ar 11.191 0.208184 11.1386
76 Ar 11.2122 4.36787 2.30396
77 Ar 11.1551 4.49625 6.74848
78 Ar 11.1365 4.47556 10.9855
79 Ar 11.0035 8.9664 2.16342
80 Ar 11.1868 8.95834 6.71283
81 Ar 10.9118 8.81206 11.2568
82 Ar 2.14642 2.23477 -0.191589
83 Ar 2.20837 2.21136 4.55345
84 Ar 2.29952 2.34656 8.86767
85 Ar 2.23879 6.55596 0.00531228
86 Ar 2.19243 6.75292 4.42514
87 Ar 2.30025 6.68783 8.89943
88 Ar 2.27255 11.1143 -0.224316
89 Ar 2.21809 11.2914 4.36446
90 Ar 2.22899 11.0762 9.08328
91 Ar 6.80182 2.38065 -0.0617171
92 Ar 6.4881 2.23303 4.5307
93 Ar 6.74278 2.21136 8.73464
94 Ar 6.63456 6.64908 -0.13437
95 Ar 6.81815 6.75984 4.53374
96 Ar 6.77462 6.8201 9.0058
97 Ar 6.51948 11.1961 0.0740475
98 Ar 6.63544 11.1593 4.36831
99 Ar 6.56561 10.9748 8.85104
100 Ar 11.1378 2.17773 0.0122303
101 Ar 11.1985 2.00542 4.6079
102 Ar 10.98 2.21739 8.81031
103 Ar 11.1333 6.49646 0.0393
104 Ar 11.2418 6.6423 4.24408
105 Ar 11.111 6.73745 8.81902
106 Ar 11.0943 11.3466 -0.0654865
107 Ar 11.1926 11.1848 4.53033
108 Ar 11.0221 10.9695 9.03677
ITEM: TIMESTEP
62020
ITEM: NUMBER OF ATOMS
108
ITEM: BOX BOUNDS pp pp pp
0.0000000000000000e+00 1.3349999400000000e+01
0.0000000000000000e+00 1.3349999400000000e+01
0.0000000000000000e+00 1.3349999400000000e+01
ITEM: ATOMS id element xu yu zu
1 Ar 0.0916472 -0.00382791 0.0800133
2 Ar 0.190632 -0.213979 4.47075
3 Ar -0.148767 0.0368593 8.90477
4 Ar 0.0191681 4.35252 0.0158887
5 Ar -0.00469378 4.33932 4.40046
6 Ar 0.066895 4.54482 8.74291
7 Ar 0.0792907 8.74628 -0.0786704
8 Ar -0.0675616 8.98793 4.39343
9 Ar -0.0803803 8.79808 9.12939
10 Ar 4.35475 0.0332875 0.0719851
11 Ar 4.30993 -0.0105749 4.44405
12 Ar 4.49911 -0.150373 8.95014
13 Ar 4.58668 4.41623 0.0296924
14 Ar 4.52795 4.44789 4.56395
15 Ar 4.45101 4.56826 8.8403
16 Ar 4.43526 8.72147 0.0536415
17 Ar 4.44967 8.90444 4.49968
18 Ar 4.4686 8.79701 8.95081
19 Ar 8.79745 0.0181541 0.133424
20 Ar 8.91967 -0.0814348 4.416
21 Ar 8.86974 0.0370729 8.92376
22 Ar 8.95941 4.50391 -0.106852
23 Ar 9.0242 4.41686 4.58599
24 Ar 8.75157 4.51694 8.80316
25 Ar 8.85406 8.87465 -0.0313178
26 Ar 8.96513 8.97435 4.29159
27 Ar 8.82797 8.8676 8.70426
28 Ar 0.0517632 2.13438 2.15784
29 Ar -0.0774815 2.25782 6.83693
30 Ar 0.093929 2.55062 10.878
31 Ar 0.119765 6.58078 2.36132
32 Ar 0.0138148 6.68542 6.4968
33 Ar -0.0755341 6.734 11.0933
34 Ar -0.0819066 11.1056 2.02265
35 Ar 0.085032 11.0741 6.97273
36 Ar -0.045559 11.1031 11.0442
37 Ar 4.42609 2.28323 2.22469
38 Ar 4.32736 2.38727 6.85566
39 Ar 4.62833 2.10177 10.9011
40 Ar 4.29705 6.64611 2.37327
41 Ar 4.54537 6.75475 6.59914
42 Ar 4.40511 6.72484 11.0711
43 Ar 4.56717 10.9242 2.27042
44 Ar 4.32934 11.0683 6.84259
45 Ar 4.5749 10.8585 11.3386
46 Ar 8.9561 2.28524 2.5126
47 Ar 8.89591 2.21229 6.56674
48 Ar 8.90539 2.33817 11.0958
49 Ar 8.9917 6.35854 2.19451
50 Ar 8.8904 6.69006 6.59465
51 Ar 8.92432 6.5478 11.1177
52 Ar 8.89535 11.1421 2.12939
53 Ar 8.93337 11.2772 6.71115
54 Ar 8.84976 11.0514 11.1312
55 Ar 2.1581 -0.00292114 2.15567
56 Ar 2.14686 0.122967 6.72514
57 Ar 2.04373 0.1445 11.031
58 Ar 2.35665 4.39926 2.25972
59 Ar 2.17477 4.63214 6.61676
60 Ar 2.32419 4.54165 11.1724
61 Ar 2.22191 9.03499 2.18772
62 Ar 2.0794 8.81344 6.81987
63 Ar 2.16017 8.76011 11.1079
64 Ar 6.65354 0.0135294 2.35919
65 Ar 6.49615 0.019414 6.61339
66 Ar 6.83388 0.0749861 11.0122
67 Ar 6.8346 4.54129 2.19978
68 Ar 6.69611 4.60291 6.6066
69 Ar 6.67905 4.35256 11.0267
70 Ar 6.74805 8.79402 2.34368
71 Ar 6.75518 9.0313 6.63437
72 Ar 6.66106 8.80836 11.3228
73 Ar 11.0286 0.104165 2.14123
74 Ar 11.0317 -0.123705 6.70228
75 Ar 11.1966 0.212292 11.1306
76 Ar 11.2041 4.36863 2.30707
77 Ar 11.1403 4.48799 6.75087
78 Ar 11.1391 4.47784 10.9798
79 Ar 11.0098 8.97694 2.15948
80 Ar 11.1854 8.95622 6.73864
81 Ar 10.9349 8.81284 11.2429
82 Ar 2.13222 2.23872 -0.177442
83 Ar 2.22242 2.20134 4.55262
84 Ar 2.30007 2.33665 8.85102
85 Ar 2.25325 6.56447 0.0145756
86 Ar 2.19744 6.77187 4.42631
87 Ar 2.28009 6.67707 8.88896
88 Ar 2.28769 11.1229 -0.213206
89 Ar 2.21522 11.2891 4.35375
90 Ar 2.24135 11.0722 9.09711
91 Ar 6.81298 2.38529 -0.0424552
92 Ar 6.48073 2.24604 4.52367
93 Ar 6.74593 2.20362 8.74438
94 Ar 6.63403 6.6466 -0.138063
95 Ar 6.79948 6.75494 4.5412
96 Ar 6.76548 6.82141 9.01623
97 Ar 6.51732 11.1919 0.103052
98 Ar 6.63043 11.1563 4.36467
99 Ar 6.566 10.9837 8.84424
100 Ar 11.1357 2.18395 0.0104485
101 Ar 11.2001 2.00362 4.60321
102 Ar 10.9855 2.21295 8.80948
103 Ar 11.1448 6.49853 0.0399942
104 Ar 11.2553 6.63935 4.26476
105 Ar 11.12 6.73486 8.83341
106 Ar 11.0905 11.3506 -0.067026
107 Ar 11.192 11.198 4.53552
108 Ar 11.0247 10.9845 9.04468
ITEM: TIMESTEP
62030
ITEM: NUMBER OF ATOMS
108
ITEM: BOX BOUNDS pp pp pp
0.0000000000000000e+00 1.3349999400000000e+01
0.0000000000000000e+00 1.3349999400000000e+01
0.0000000000000000e+00 1.3349999400000000e+01
ITEM: ATOMS id element xu yu zu
1 Ar 0.109391 -0.00992243 0.0665182
2 Ar 0.183465 -0.211537 4.45288
3 Ar -0.154654 0.0199091 8.89376
4 Ar 0.0151628 4.35714 0.00159412
5 Ar -0.00891395 4.33702 4.42624
6 Ar 0.0814046 4.54059 8.74887
7 Ar 0.0635617 8.75926 -0.0590855
8 Ar -0.0615404 8.98197 4.39499
9 Ar -0.083119 8.80063 9.13464
10 Ar 4.35821 0.0474389 0.0809642
11 Ar 4.31041 -0.0244247 4.4412
12 Ar 4.5004 -0.1664 8.93504
13 Ar 4.58614 4.40056 0.030376
14 Ar 4.52273 4.45258 4.56175
15 Ar 4.46301 4.55449 8.85087
16 Ar 4.45201 8.70959 0.0602454
17 Ar 4.43999 8.91668 4.51366
18 Ar 4.45762 8.79546 8.96165
19 Ar 8.78904 0.0112868 0.116401
20 Ar 8.92413 -0.0893774 4.40592
21 Ar 8.88323 0.0334813 8.94678
22 Ar 8.94394 4.50394 -0.111831
23 Ar 9.01631 4.40579 4.56275
24 Ar 8.74807 4.51028 8.79314
25 Ar 8.87058 8.88368 -0.0520738
26 Ar 8.96637 8.97674 4.29309
27 Ar 8.82748 8.87322 8.67469
28 Ar 0.0218668 2.12995 2.14862
29 Ar -0.0610896 2.27315 6.81234
30 Ar 0.115031 2.57183 10.8607
31 Ar 0.0913534 6.58142 2.35358
32 Ar -0.00074049 6.69684 6.50327
33 Ar -0.0779471 6.73476 11.1092
34 Ar -0.0606258 11.1075 2.03447
35 Ar 0.0959958 11.0619 6.97016
36 Ar -0.0516739 11.099 11.0245
37 Ar 4.40739 2.27448 2.21454
38 Ar 4.32169 2.39034 6.84217
39 Ar 4.63453 2.09832 10.9022
40 Ar 4.29318 6.64249 2.36816
41 Ar 4.55299 6.76959 6.60446
42 Ar 4.38938 6.74219 11.066
43 Ar 4.55832 10.9272 2.27995
44 Ar 4.31622 11.0783 6.82879
45 Ar 4.58939 10.8839 11.3286
46 Ar 8.97857 2.28349 2.50989
47 Ar 8.89037 2.21347 6.55828
48 Ar 8.89254 2.33213 11.096
49 Ar 8.98969 6.37306 2.1829
50 Ar 8.87921 6.70435 6.59903
51 Ar 8.93245 6.53827 11.1241
52 Ar 8.89851 11.119 2.12873
53 Ar 8.94183 11.2531 6.72551
54 Ar 8.84738 11.0509 11.1177
55 Ar 2.16026 -0.00841839 2.15717
56 Ar 2.14201 0.110528 6.7223
57 Ar 2.04957 0.137668 11.0465
58 Ar 2.35139 4.42051 2.24331
59 Ar 2.17871 4.628 6.62628
60 Ar 2.32266 4.53106 11.172
61 Ar 2.20246 9.01345 2.19633
62 Ar 2.09976 8.83993 6.82168
63 Ar 2.18843 8.76105 11.0999
64 Ar 6.65982 0.0318607 2.38886
65 Ar 6.48566 0.0336429 6.60799
66 Ar 6.82112 0.0770369 11.0355
67 Ar 6.84478 4.54518 2.19099
68 Ar 6.69185 4.58785 6.62331
69 Ar 6.66991 4.35913 11.0386
70 Ar 6.74682 8.80183 2.3353
71 Ar 6.7466 9.04199 6.63232
72 Ar 6.65088 8.79594 11.3178
73 Ar 11.0308 0.074725 2.11925
74 Ar 11.0193 -0.131952 6.7117
75 Ar 11.2014 0.214663 11.1226
76 Ar 11.1963 4.3674 2.30887
77 Ar 11.1252 4.47987 6.75182
78 Ar 11.142 4.47966 10.9743
79 Ar 11.0186 8.98608 2.154
80 Ar 11.1835 8.95353 6.7625
81 Ar 10.9601 8.8141 11.2284
82 Ar 2.12092 2.24319 -0.16173
83 Ar 2.23602 2.1924 4.55065
84 Ar 2.29918 2.32632 8.83592
85 Ar 2.2672 6.57347 0.0247467
86 Ar 2.20314 6.79072 4.42865
87 Ar 2.25828 6.66581 8.8783
88 Ar 2.30144 11.1313 -0.199954
89 Ar 2.21447 11.2803 4.34491
90 Ar 2.25458 11.0686 9.11062
91 Ar 6.82279 2.38669 -0.0211691
92 Ar 6.47558 2.25882 4.51631
93 Ar 6.74845 2.19665 8.75396
94 Ar 6.63445 6.6424 -0.138434
95 Ar 6.77962 6.7492 4.54581
96 Ar 6.75436 6.82078 9.02488
97 Ar 6.51859 11.1873 0.131688
98 Ar 6.62633 11.1528 4.36381
99 Ar 6.56866 10.9944 8.83992
100 Ar 11.1331 2.19216 0.00797701
101 Ar 11.2034 2.0034 4.59699
102 Ar 10.9915 2.20973 8.80938
103 Ar 11.158 6.50296 0.0410225
104 Ar 11.2661 6.63791 4.28858
105 Ar 11.1282 6.73137 8.8481
106 Ar 11.0868 11.3519 -0.0697338
107 Ar 11.1912 11.2103 4.53875
108 Ar 11.0278 11.0015 9.05192
ITEM: TIMESTEP
62040
ITEM: NUMBER OF ATOMS
108
ITEM: BOX BOUNDS pp pp pp
0.0000000000000000e+00 1.3349999400000000e+01
0.0000000000000000e+00 1.3349999400000000e+01
0.0000000000000000e+00 1.3349999400000000e+01
ITEM: ATOMS id element xu yu zu
1 Ar 0.124956 -0.0158817 0.0493923
2 Ar 0.17097 -0.204858 4.43542
3 Ar -0.159126 0.0032187 8.88284
4 Ar 0.0106917 4.3636 -0.0125348
5 Ar -0.0123537 4.33407 4.45289
6 Ar 0.09484 4.53831 8.75596
7 Ar 0.0461269 8.77409 -0.0379548
8 Ar -0.0546317 8.97705 4.39683
9 Ar -0.0852531 8.80448 9.13602
10 Ar 4.36353 0.0622609 0.0881312
11 Ar 4.31228 -0.0377544 4.4386
12 Ar 4.50024 -0.181006 8.92072
13 Ar 4.58383 4.38509 0.0299857
14 Ar 4.51574 4.4585 4.55762
15 Ar 4.47614 4.54127 8.86228
16 Ar 4.46805 8.69877 0.0683562
17 Ar 4.42948 8.92964 4.52799
18 Ar 4.44652 8.79562 8.97112
19 Ar 8.78019 0.00579543 0.0971289
20 Ar 8.92746 -0.0969575 4.39671
21 Ar 8.89707 0.0284886 8.96887
22 Ar 8.929 4.50156 -0.115629
23 Ar 9.00768 4.39591 4.53892
24 Ar 8.74693 4.50312 8.7835
25 Ar 8.88687 8.89206 -0.070326
26 Ar 8.96847 8.97837 4.29798
27 Ar 8.82868 8.87966 8.64927
28 Ar -0.0079918 2.12671 2.14199
29 Ar -0.0438233 2.28737 6.78575
30 Ar 0.133596 2.58895 10.8454
31 Ar 0.0628955 6.58327 2.34211
32 Ar -0.0168639 6.70883 6.51159
33 Ar -0.0795688 6.73121 11.1263
34 Ar -0.0392182 11.109 2.04773
35 Ar 0.106021 11.0502 6.9651
36 Ar -0.0582281 11.0956 11.0078
37 Ar 4.38958 2.26475 2.20435
38 Ar 4.31866 2.39109 6.82582
39 Ar 4.63786 2.09634 10.9063
40 Ar 4.29333 6.63951 2.36176
41 Ar 4.55942 6.78443 6.61148
42 Ar 4.37505 6.75697 11.0623
43 Ar 4.54643 10.9328 2.28836
44 Ar 4.3024 11.088 6.81172
45 Ar 4.60252 10.9128 11.3148
46 Ar 8.99925 2.2813 2.50398
47 Ar 8.88382 2.21352 6.55059
48 Ar 8.88087 2.325 11.0959
49 Ar 8.98806 6.39358 2.1722
50 Ar 8.87038 6.71947 6.60346
51 Ar 8.9404 6.53097 11.1295
52 Ar 8.90121 11.0961 2.12891
53 Ar 8.94764 11.2266 6.73903
54 Ar 8.84366 11.0515 11.1045
55 Ar 2.16489 -0.0139144 2.15895
56 Ar 2.13838 0.0958615 6.72127
57 Ar 2.05748 0.129642 11.0616
58 Ar 2.34356 4.4406 2.22724
59 Ar 2.18401 4.62241 6.63482
60 Ar 2.32169 4.52009 11.1705
61 Ar 2.18252 8.99093 2.20483
62 Ar 2.12163 8.86771 6.82186
63 Ar 2.21764 8.76344 11.0934
64 Ar 6.66529 0.0517455 2.41627
65 Ar 6.47683 0.0467408 6.60276
66 Ar 6.80647 0.0767633 11.0613
67 Ar 6.85104 4.54713 2.18402
68 Ar 6.6873 4.57089 6.6414
69 Ar 6.65957 4.36774 11.0502
70 Ar 6.74506 8.80843 2.32409
71 Ar 6.73655 9.05163 6.62843
72 Ar 6.6426 8.78566 11.3095
73 Ar 11.0352 0.0438674 2.09983
74 Ar 11.0101 -0.13834 6.72226
75 Ar 11.2054 0.215456 11.1151
76 Ar 11.1887 4.3645 2.30941
77 Ar 11.11 4.47207 6.75144
78 Ar 11.145 4.48079 10.9691
79 Ar 11.0298 8.99364 2.14725
80 Ar 11.1813 8.95046 6.78399
81 Ar 10.9868 8.8159 11.2136
82 Ar 2.11256 2.24813 -0.144611
83 Ar 2.24891 2.18472 4.54729
84 Ar 2.29704 2.31539 8.82258
85 Ar 2.28028 6.58295 0.035441
86 Ar 2.20916 6.80904 4.43226
87 Ar 2.23525 6.65435 8.86756
88 Ar 2.31384 11.1391 -0.184827
89 Ar 2.21552 11.2654 4.33807
90 Ar 2.26849 11.0657 9.12366
91 Ar 6.83113 2.38473 0.00198935
92 Ar 6.47264 2.27137 4.50856
93 Ar 6.75031 2.19035 8.76329
94 Ar 6.63583 6.63651 -0.135519
95 Ar 6.7589 6.74273 4.54744
96 Ar 6.74159 6.81825 9.03166
97 Ar 6.52311 11.1824 0.159592
98 Ar 6.62332 11.1488 4.3658
99 Ar 6.57347 11.0069 8.83798
100 Ar 11.1299 2.20213 0.00465784
101 Ar 11.2083 2.00444 4.58939
102 Ar 10.998 2.2078 8.80984
103 Ar 11.1722 6.50953 0.0423713
104 Ar 11.2737 6.63794 4.31517
105 Ar 11.1353 6.72686 8.86282
106 Ar 11.0834 11.3503 -0.0737937
107 Ar 11.1904 11.2212 4.54003
108 Ar 11.0311 11.0204 9.05831
ITEM: TIMESTEP
62050
ITEM: NUMBER OF ATOMS
108
ITEM: BOX BOUNDS pp pp pp
0.0000000000000000e+00 1.3349999400000000e+01
0.0000000000000000e+00 1.3349999400000000e+01
0.0000000000000000e+00 1.3349999400000000e+01
ITEM: ATOMS id element xu yu zu
1 Ar 0.137992 -0.0217415 0.0289639
2 Ar 0.153712 -0.194184 4.41864
3 Ar -0.161895 -0.0127591 8.87205
4 Ar 0.00581762 4.37181 -0.0262984
5 Ar -0.0148655 4.33076 4.47973
6 Ar 0.106732 4.5381 8.76367
7 Ar 0.0275118 8.79067 -0.0159246
8 Ar -0.0471643 8.9733 4.3991
9 Ar -0.0864114 8.80937 9.13361
10 Ar 4.37082 0.07751 0.0934118
11 Ar 4.31545 -0.0503955 4.43629
12 Ar 4.49863 -0.193647 8.90746
13 Ar 4.57978 4.37001 0.0284725
14 Ar 4.50698 4.46569 4.5516
15 Ar 4.49001 4.52877 8.87439
16 Ar 4.48316 8.6896 0.0778215
17 Ar 4.41836 8.94312 4.54223
18 Ar 4.43562 8.79775 8.97884
19 Ar 8.77113 0.0015376 0.0760856
20 Ar 8.92976 -0.104188 4.38868
21 Ar 8.91078 0.0222185 8.98981
22 Ar 8.91509 4.49694 -0.118156
23 Ar 8.99828 4.38767 4.51504
24 Ar 8.74811 4.49562 8.7746
25 Ar 8.90276 8.89963 -0.0861606
26 Ar 8.97139 8.97908 4.30615
27 Ar 8.83138 8.88664 8.62877
28 Ar -0.0373577 2.12466 2.138
29 Ar -0.0259894 2.30012 6.75773
30 Ar 0.149296 2.60125 10.8326
31 Ar 0.0347599 6.58612 2.32735
32 Ar -0.0338755 6.72127 6.52188
33 Ar -0.0799555 6.72376 11.1446
34 Ar -0.0180128 11.1102 2.06214
35 Ar 0.114913 11.0393 6.95757
36 Ar -0.0648398 11.093 10.9947
37 Ar 4.37272 2.25438 2.19447
38 Ar 4.31834 2.38947 6.80689
39 Ar 4.63813 2.09574 10.9132
40 Ar 4.29768 6.63727 2.35434
41 Ar 4.56451 6.79889 6.62031
42 Ar 4.36229 6.76848 11.06
43 Ar 4.53152 10.9408 2.29551
44 Ar 4.28827 11.0974 6.79172
45 Ar 4.61441 10.9449 11.2979
46 Ar 9.01796 2.27833 2.49475
47 Ar 8.87639 2.21227 6.54374
48 Ar 8.8705 2.317 11.0956
49 Ar 8.98694 6.41993 2.16255
50 Ar 8.86377 6.73487 6.60765
51 Ar 8.9481 6.52615 11.1337
52 Ar 8.90335 11.0741 2.12987
53 Ar 8.95075 11.1986 6.75133
54 Ar 8.83856 11.0532 11.0917
55 Ar 2.17179 -0.0191849 2.16102
56 Ar 2.13587 0.0791078 6.72185
57 Ar 2.06743 0.120672 11.0759
58 Ar 2.33299 4.45917 2.21191
59 Ar 2.19069 4.61571 6.64211
60 Ar 2.32168 4.50915 11.168
61 Ar 2.16258 8.96767 2.21296
62 Ar 2.14466 8.8961 6.82052
63 Ar 2.2468 8.76741 11.0887
64 Ar 6.67001 0.0728451 2.44094
65 Ar 6.46993 0.0585521 6.59765
66 Ar 6.79003 0.0740813 11.0892
67 Ar 6.85333 4.54716 2.17903
68 Ar 6.68244 4.55242 6.66038
69 Ar 6.64826 4.37818 11.0615
70 Ar 6.74281 8.81364 2.31044
71 Ar 6.72496 9.06014 6.62281
72 Ar 6.63639 8.77781 11.2982
73 Ar 11.0414 0.0120258 2.08307
74 Ar 11.004 -0.142649 6.73371
75 Ar 11.2089 0.214839 11.1082
76 Ar 11.1817 4.36033 2.30877
77 Ar 11.0948 4.46473 6.74985
78 Ar 11.1479 4.48097 10.9643
79 Ar 11.0435 8.99951 2.13957
80 Ar 11.1791 8.94717 6.80275
81 Ar 11.0144 8.81828 11.1984
82 Ar 2.1071 2.2535 -0.126261
83 Ar 2.26086 2.17842 4.54233
84 Ar 2.2939 2.30373 8.81112
85 Ar 2.29212 6.59284 0.0462415
86 Ar 2.21512 6.82639 4.4372
87 Ar 2.21145 6.64306 8.85686
88 Ar 2.32502 11.1459 -0.168098
89 Ar 2.2179 11.2449 4.33335
90 Ar 2.28281 11.0635 9.13604
91 Ar 6.83787 2.37936 0.0268044
92 Ar 6.47187 2.28372 4.50041
93 Ar 6.75147 2.18456 8.77232
94 Ar 6.63812 6.62907 -0.12945
95 Ar 6.73766 6.73563 4.54605
96 Ar 6.72757 6.81388 9.03649
97 Ar 6.53056 11.1772 0.186389
98 Ar 6.62154 11.1444 4.37057
99 Ar 6.58029 11.0208 8.83824
100 Ar 11.1261 2.21357 0.000356237
101 Ar 11.2146 2.00649 4.58057
102 Ar 11.0051 2.20722 8.81071
103 Ar 11.1869 6.51803 0.0440053
104 Ar 11.2778 6.63936 4.34409
105 Ar 11.1412 6.72124 8.87734
106 Ar 11.0805 11.3459 -0.0793711
107 Ar 11.1897 11.2304 4.53944
108 Ar 11.0346 11.0407 9.06367
ITEM: TIMESTEP
62060
ITEM: NUMBER OF ATOMS
108
ITEM: BOX BOUNDS pp pp pp
0.0000000000000000e+00 1.3349999400000000e+01
0.0000000000000000e+00 1.3349999400000000e+01
0.0000000000000000e+00 1.3349999400000000e+01
ITEM: ATOMS id element xu yu zu
1 Ar 0.14821 -0.0274937 0.00569224
2 Ar 0.132469 -0.179896 4.40279
3 Ar -0.162691 -0.0276097 8.86144
4 Ar 0.000637064 4.38159 -0.0395087
5 Ar -0.0163534 4.32745 4.50608
6 Ar 0.116635 4.53991 8.77148
7 Ar 0.00823208 8.8089 0.00633843
8 Ar -0.0394738 8.9708 4.40191
9 Ar -0.0862278 8.81499 9.12753
10 Ar 4.38015 0.0928944 0.0967399
11 Ar 4.31975 -0.0621918 4.43429
12 Ar 4.49561 -0.203819 8.89548
13 Ar 4.57401 4.35551 0.0258323
14 Ar 4.49653 4.47415 4.54376
15 Ar 4.50419 4.51708 8.88701
16 Ar 4.49718 8.68265 0.0884071
17 Ar 4.40689 8.9569 4.55592
18 Ar 4.42525 8.80201 8.98447
19 Ar 8.76216 -0.00165988 0.0537964
20 Ar 8.93117 -0.111059 4.38207
21 Ar 8.9239 0.0148503 9.0094
22 Ar 8.90267 4.49037 -0.119326
23 Ar 8.98808 4.38146 4.4916
24 Ar 8.75157 4.48794 8.76681
25 Ar 8.91813 8.90625 -0.0997252
26 Ar 8.97509 8.97873 4.31739
27 Ar 8.83528 8.89382 8.61393
28 Ar -0.0657752 2.1237 2.13658
29 Ar -0.00787619 2.31105 6.7289
30 Ar 0.161854 2.6081 10.8226
31 Ar 0.00724835 6.58974 2.3099
32 Ar -0.0510898 6.73401 6.53421
33 Ar -0.078679 6.71294 11.1638
34 Ar 0.00269325 11.1111 2.07741
35 Ar 0.12248 11.0292 6.94759
36 Ar -0.0711106 11.0911 10.9855
37 Ar 4.35689 2.24372 2.18525
38 Ar 4.32072 2.3855 6.78579
39 Ar 4.63522 2.0964 10.9228
40 Ar 4.30628 6.63586 2.34619
41 Ar 4.56816 6.81256 6.63103
42 Ar 4.35124 6.77614 11.0594
43 Ar 4.51373 10.9511 2.30127
44 Ar 4.2743 11.1065 6.76922
45 Ar 4.62519 10.9798 11.2787
46 Ar 9.03459 2.27425 2.48211
47 Ar 8.86825 2.20961 6.53774
48 Ar 8.86146 2.30838 11.0952
49 Ar 8.98642 6.45175 2.15405
50 Ar 8.85919 6.74997 6.61132
51 Ar 8.95545 6.52398 11.1366
52 Ar 8.90492 11.0533 2.13156
53 Ar 8.95127 11.1699 6.762
54 Ar 8.8321 11.0557 11.0796
55 Ar 2.18061 -0.0240521 2.16338
56 Ar 2.13434 0.0604673 6.72373
57 Ar 2.07942 0.111012 11.0891
58 Ar 2.31962 4.47593 2.1977
59 Ar 2.19875 4.60818 6.64792
60 Ar 2.32294 4.49862 11.1645
61 Ar 2.14314 8.94389 2.22046
62 Ar 2.16843 8.92437 6.81784
63 Ar 2.27491 8.77305 11.0864
64 Ar 6.674 0.0947572 2.46245
65 Ar 6.46522 0.0689388 6.59266
66 Ar 6.77196 0.069004 11.1187
67 Ar 6.85173 4.54541 2.17616
68 Ar 6.67723 4.53285 6.67973
69 Ar 6.63628 4.39019 11.0723
70 Ar 6.74011 8.81732 2.29479
71 Ar 6.7118 9.06744 6.61567
72 Ar 6.63234 8.77259 11.2842
73 Ar 11.0494 -0.0203391 2.069
74 Ar 11.0008 -0.144766 6.74569
75 Ar 11.2119 0.212988 11.1024
76 Ar 11.1752 4.35541 2.30706
77 Ar 11.0797 4.45795 6.74713
78 Ar 11.1507 4.48002 10.9601
79 Ar 11.0592 9.00361 2.13134
80 Ar 11.177 8.94385 6.81849
81 Ar 11.0424 8.82127 11.1833
82 Ar 2.1044 2.25924 -0.106879
83 Ar 2.27167 2.17352 4.53564
84 Ar 2.29007 2.29124 8.80157
85 Ar 2.3024 6.60314 0.0567229
86 Ar 2.22071 6.84232 4.44349
87 Ar 2.18741 6.63238 8.84636
88 Ar 2.33511 11.1512 -0.150052
89 Ar 2.22102 11.2194 4.33085
90 Ar 2.29721 11.0621 9.14758
91 Ar 6.84291 2.37063 0.0530014
92 Ar 6.47317 2.29594 4.49186
93 Ar 6.75191 2.17908 8.78107
94 Ar 6.64131 6.6203 -0.12045
95 Ar 6.71624 6.72799 4.54171
96 Ar 6.71271 6.80777 9.03927
97 Ar 6.54056 11.1718 0.211704
98 Ar 6.62108 11.1397 4.37789
99 Ar 6.58895 11.0359 8.84043
100 Ar 11.1217 2.22614 -0.00503599
101 Ar 11.2219 2.00932 4.57075
102 Ar 11.013 2.20801 8.81182
103 Ar 11.2016 6.52821 0.0458592
104 Ar 11.278 6.64205 4.3748
105 Ar 11.1457 6.71448 8.89142
106 Ar 11.0783 11.3384 -0.0866033
107 Ar 11.1892 11.2376 4.53712
108 Ar 11.0383 11.0621 9.06782
ITEM: TIMESTEP
62070
ITEM: NUMBER OF ATOMS
108
ITEM: BOX BOUNDS pp pp pp
0.0000000000000000e+00 1.3349999400000000e+01
0.0000000000000000e+00 1.3349999400000000e+01
0.0000000000000000e+00 1.3349999400000000e+01
ITEM: ATOMS id element xu yu zu
1 Ar 0.155394 -0.0330861 -0.0198593
2 Ar 0.10815 -0.162466 4.38809
3 Ar -0.161264 -0.0409681 8.85113
4 Ar -0.00472391 4.39265 -0.0519877
5 Ar -0.016772 4.32463 4.5312
6 Ar 0.124148 4.54358 8.77894
7 Ar -0.0112035 8.82863 0.0281567
8 Ar -0.0318983 8.96952 4.40539
9 Ar -0.0843628 8.82104 9.11804
10 Ar 4.39153 0.108083 0.0980714
11 Ar 4.32501 -0.0729985 4.43265
12 Ar 4.49127 -0.211068 8.88491
13 Ar 4.56661 4.34172 0.0221101
14 Ar 4.48449 4.48381 4.53423
15 Ar 4.51824 4.50621 8.8999
16 Ar 4.50998 8.67837 0.0998025
17 Ar 4.39536 8.97069 4.56855
18 Ar 4.41578 8.80851 8.98777
19 Ar 8.75369 -0.00399466 0.0308129
20 Ar 8.93188 -0.117539 4.3771
21 Ar 8.93595 0.00661891 9.02744
22 Ar 8.89212 4.48213 -0.119067
23 Ar 8.97709 4.37756 4.46902
24 Ar 8.75719 4.48025 8.76048
25 Ar 8.93285 8.91183 -0.11121
26 Ar 8.9795 8.97722 4.33142
27 Ar 8.84003 8.90079 8.60536
28 Ar -0.0927954 2.12372 2.13756
29 Ar 0.0102526 2.3198 6.69999
30 Ar 0.171064 2.60899 10.8156
31 Ar -0.0193953 6.59392 2.29043
32 Ar -0.0678438 6.74688 6.5486
33 Ar -0.075354 6.69938 11.1834
34 Ar 0.0226424 11.1119 2.09322
35 Ar 0.128533 11.0201 6.93522
36 Ar -0.0766396 11.09 10.9805
37 Ar 4.34217 2.23317 2.17708
38 Ar 4.32567 2.37921 6.76294
39 Ar 4.62912 2.09825 10.9349
40 Ar 4.31904 6.63527 2.3376
41 Ar 4.57027 6.82507 6.64365
42 Ar 4.34208 6.77951 11.0604
43 Ar 4.49335 10.9632 2.30553
44 Ar 4.261 11.1153 6.74472
45 Ar 4.63497 11.017 11.2581
46 Ar 9.04906 2.26875 2.4661
47 Ar 8.85958 2.20544 6.5326
48 Ar 8.85371 2.29936 11.0946
49 Ar 8.98647 6.4885 2.14675
50 Ar 8.85638 6.76425 6.61424
51 Ar 8.96233 6.52455 11.1381
52 Ar 8.90592 11.0341 2.13398
53 Ar 8.94938 11.1414 6.77063
54 Ar 8.82436 11.0587 11.0685
55 Ar 2.19098 -0.0283866 2.16605
56 Ar 2.13363 0.040202 6.72658
57 Ar 2.09344 0.100901 11.101
58 Ar 2.30346 4.49066 2.18497
59 Ar 2.20817 4.6001 6.65214
60 Ar 2.32572 4.48882 11.1604
61 Ar 2.12467 8.91977 2.22707
62 Ar 2.19252 8.95182 6.814
63 Ar 2.30106 8.78046 11.0866
64 Ar 6.6773 0.117023 2.48041
65 Ar 6.4629 0.0777769 6.58779
66 Ar 6.75238 0.0616487 11.1493
67 Ar 6.84647 4.54206 2.17547
68 Ar 6.67166 4.51266 6.69891
69 Ar 6.62396 4.40345 11.0828
70 Ar 6.73702 8.81942 2.27769
71 Ar 6.69712 9.07345 6.60733
72 Ar 6.63044 8.77009 11.2678
73 Ar 11.0587 -0.052759 2.05755
74 Ar 11.0004 -0.144681 6.75784
75 Ar 11.2146 0.210083 11.0978
76 Ar 11.1694 4.35027 2.30442
77 Ar 11.0649 4.4518 6.74337
78 Ar 11.1531 4.47775 10.9566
79 Ar 11.0769 9.00596 2.12299
80 Ar 11.1754 8.94069 6.83101
81 Ar 11.0703 8.82489 11.1682
82 Ar 2.10424 2.26527 -0.0866868
83 Ar 2.28119 2.16999 4.52714
84 Ar 2.28585 2.27788 8.79386
85 Ar 2.31087 6.6138 0.066477
86 Ar 2.22567 6.85642 4.45113
87 Ar 2.1637 6.62282 8.83625
88 Ar 2.34428 11.1548 -0.130983
89 Ar 2.2242 11.1901 4.33061
90 Ar 2.31133 11.0617 9.15807
91 Ar 6.84613 2.35867 0.0802546
92 Ar 6.47643 2.30812 4.48295
93 Ar 6.75158 2.17373 8.78964
94 Ar 6.64533 6.6105 -0.108824
95 Ar 6.69499 6.7199 4.5346
96 Ar 6.69744 6.80004 9.0399
97 Ar 6.55265 11.1663 0.235179
98 Ar 6.62196 11.1348 4.38742
99 Ar 6.59923 11.052 8.84421
100 Ar 11.1166 2.23949 -0.0115974
101 Ar 11.23 2.01275 4.56015
102 Ar 11.0217 2.21014 8.81301
103 Ar 11.2156 6.53982 0.0478293
104 Ar 11.2743 6.64589 4.40669
105 Ar 11.1489 6.7066 8.90485
106 Ar 11.0769 11.3281 -0.0955868
107 Ar 11.1889 11.2425 4.53321
108 Ar 11.0421 11.0841 9.0706
ITEM: TIMESTEP
62080
ITEM: NUMBER OF ATOMS
108
ITEM: BOX BOUNDS pp pp pp
0.0000000000000000e+00 1.3349999400000000e+01
0.0000000000000000e+00 1.3349999400000000e+01
0.0000000000000000e+00 1.3349999400000000e+01
ITEM: ATOMS id element xu yu zu
1 Ar 0.159407 -0.0384274 -0.0470557
2 Ar 0.0817172 -0.142422 4.37476
3 Ar -0.157397 -0.0525284 8.84122
4 Ar -0.0101171 4.40465 -0.0635653
5 Ar -0.0161234 4.32287 4.55442
6 Ar 0.128921 4.54881 8.78564
7 Ar -0.0302871 8.84972 0.0488495
8 Ar -0.0247719 8.96936 4.40963
9 Ar -0.0805256 8.82724 9.10542
10 Ar 4.40488 0.122717 0.0974014
11 Ar 4.331 -0.0826804 4.43137
12 Ar 4.48576 -0.21501 8.87578
13 Ar 4.55768 4.3288 0.0174035
14 Ar 4.47097 4.49455 4.52315
15 Ar 4.53167 4.49611 8.91276
16 Ar 4.5215 8.67714 0.111629
17 Ar 4.38412 8.98412 4.57961
18 Ar 4.40754 8.81725 8.98859
19 Ar 8.7462 -0.00568203 0.00769296
20 Ar 8.93207 -0.123579 4.37394
21 Ar 8.9465 -0.00218885 9.04373
22 Ar 8.88371 4.47259 -0.117325
23 Ar 8.96535 4.37616 4.44765
24 Ar 8.76484 4.47269 8.75588
25 Ar 8.9468 8.91627 -0.120833
26 Ar 8.98452 8.97451 4.34789
27 Ar 8.84524 8.90715 8.60359
28 Ar -0.117985 2.12458 2.14066
29 Ar 0.0281613 2.32604 6.67171
30 Ar 0.176813 2.60361 10.812
31 Ar -0.0449678 6.59845 2.2697
32 Ar -0.0835218 6.75969 6.56502
33 Ar -0.0696617 6.68379 11.2032
34 Ar 0.0416219 11.113 2.10933
35 Ar 0.132895 11.0121 6.92053
36 Ar -0.081038 11.0898 10.9797
37 Ar 4.32865 2.22312 2.17029
38 Ar 4.33298 2.37068 6.73884