ITEM: TIMESTEP
2000
ITEM: NUMBER OF ATOMS
108
ITEM: BOX BOUNDS pp pp pp
0.0000000000000000e+00 1.3349999400000000e+01
0.0000000000000000e+00 1.3349999400000000e+01
0.0000000000000000e+00 1.3349999400000000e+01
ITEM: ATOMS id element xu yu zu
1 Ar 0.0176331 0.16582 0.028323
2 Ar -0.196033 0.0663554 4.35959
3 Ar -0.0258568 -0.0893351 8.87112
4 Ar 0.0805663 4.50512 0.0303576
5 Ar 0.16136 4.44952 4.52202
6 Ar -0.0588173 4.33091 9.16636
7 Ar -0.0166783 8.84517 -0.028381
8 Ar -0.0636478 8.80999 4.56522
9 Ar 0.123725 8.79647 8.91472
10 Ar 4.33067 -0.0415505 0.0343168
11 Ar 4.4591 0.0884135 4.346
12 Ar 4.39512 0.0610673 8.70876
13 Ar 4.57609 4.40173 -0.0579906
14 Ar 4.33641 4.51111 4.46273
15 Ar 4.5971 4.48106 8.97525
16 Ar 4.43635 9.07888 -0.00193224
17 Ar 4.48267 8.8954 4.34119
18 Ar 4.56161 9.00238 8.72122
19 Ar 8.83101 -0.048016 -0.0863674
20 Ar 8.81427 0.0405538 4.2594
21 Ar 9.02107 -0.0530382 9.05679
22 Ar 8.90203 4.40675 0.0473197
23 Ar 8.83212 4.47542 4.53261
24 Ar 8.90025 4.60805 8.95469
25 Ar 8.96886 8.90241 0.0736057
26 Ar 8.85056 9.05982 4.40604
27 Ar 8.82176 8.90323 8.91996
28 Ar -0.290969 2.21949 2.30963
29 Ar -0.0149036 2.2843 6.66308
30 Ar 0.13896 2.26829 11.2342
31 Ar -0.18578 6.49917 2.33945
32 Ar 0.142497 6.68007 6.9024
33 Ar 0.0877832 6.61446 11.1076
34 Ar -0.0677439 10.9658 2.2827
35 Ar -0.0241179 11.0115 6.59874
36 Ar -0.0699826 11.2652 11.0836
37 Ar 4.30535 2.20454 2.20069
38 Ar 4.54342 2.19528 6.64159
39 Ar 4.43014 2.15954 10.9919
40 Ar 4.56581 6.64958 2.26015
41 Ar 4.41385 6.64485 6.60656
42 Ar 4.46589 6.85936 11.1511
43 Ar 4.43103 11.112 2.10163
44 Ar 4.50292 11.0757 6.65944
45 Ar 4.54159 10.9855 10.9357
46 Ar 8.70449 2.05132 2.01098
47 Ar 9.06149 2.37476 6.7571
48 Ar 8.84327 2.25584 11.1888
49 Ar 8.72404 6.49749 2.24953
50 Ar 9.06355 6.65963 6.62487
51 Ar 8.89944 6.97848 11.1561
52 Ar 8.78184 11.1583 2.37461
53 Ar 8.84878 11.2928 6.90184
54 Ar 8.95577 11.0971 11.1744
55 Ar 2.05616 0.208148 2.32012
56 Ar 2.225 0.0246076 6.47636
57 Ar 2.21742 -0.0241569 11.0606
58 Ar 2.10152 4.44641 2.13664
59 Ar 2.28777 4.45967 6.97876
60 Ar 2.24358 4.65596 11.0606
61 Ar 2.04203 8.81621 2.23488
62 Ar 2.32335 8.94506 6.59347
63 Ar 2.19187 9.0716 11.1434
64 Ar 6.634 -0.0330058 2.09528
65 Ar 6.9094 0.0414973 6.4379
66 Ar 6.64014 -0.102782 11.1002
67 Ar 6.75238 4.23747 2.11147
68 Ar 6.73637 4.45495 6.62637
69 Ar 6.92953 4.62394 11.1918
70 Ar 6.67384 8.97192 2.18856
71 Ar 6.79048 8.95249 6.62375
72 Ar 6.73034 8.94683 11.0631
73 Ar 11.0058 -0.153965 2.05236
74 Ar 11.1745 0.0299649 6.761
75 Ar 11.193 0.0220707 11.1202
76 Ar 11.174 4.31677 2.38848
77 Ar 11.1558 4.60442 6.74332
78 Ar 11.0277 4.4011 11.2147
79 Ar 11.0826 8.85102 2.26564
80 Ar 11.1029 8.80896 6.7729
81 Ar 11.272 8.77744 11.164
82 Ar 2.34672 2.27806 0.0440601
83 Ar 2.11844 2.30583 4.41559
84 Ar 2.18057 1.99425 8.77753
85 Ar 2.28435 6.63174 -0.000752375
86 Ar 2.05246 6.61866 4.4967
87 Ar 2.42582 6.89252 8.99441
88 Ar 2.05166 11.2594 -0.0221701
89 Ar 2.26344 11.2118 4.32629
90 Ar 2.20688 11.0402 8.89333
91 Ar 6.54884 2.14633 -0.176846
92 Ar 6.6814 2.1693 4.30056
93 Ar 6.70204 2.12244 9.00424
94 Ar 6.78337 6.73785 0.0194309
95 Ar 6.87521 6.63937 4.57317
96 Ar 6.69547 6.69156 8.90392
97 Ar 6.72079 11.0146 -0.0924829
98 Ar 6.56375 11.1578 4.39738
99 Ar 6.75281 11.1428 8.90712
100 Ar 11.1015 2.08145 -0.0517139
101 Ar 11.0522 2.18616 4.51443
102 Ar 11.0882 2.33213 8.92107
103 Ar 10.9528 6.49566 0.238209
104 Ar 11.0868 6.65782 4.39488
105 Ar 11.0703 6.64116 9.02789
106 Ar 11.1883 11.0362 -0.0423915
107 Ar 11.0063 11.219 4.44865
108 Ar 11.3382 10.9772 8.98055
ITEM: TIMESTEP
2010
ITEM: NUMBER OF ATOMS
108
ITEM: BOX BOUNDS pp pp pp
0.0000000000000000e+00 1.3349999400000000e+01
0.0000000000000000e+00 1.3349999400000000e+01
0.0000000000000000e+00 1.3349999400000000e+01
ITEM: ATOMS id element xu yu zu
1 Ar 0.0139317 0.161412 0.0164981
2 Ar -0.188512 0.0803705 4.36471
3 Ar -0.0151462 -0.086254 8.86596
4 Ar 0.0627921 4.51734 0.0408262
5 Ar 0.159213 4.44884 4.52067
6 Ar -0.06446 4.34453 9.17792
7 Ar 0.0139216 8.86575 -0.0271839
8 Ar -0.056846 8.81314 4.57982
9 Ar 0.111222 8.80434 8.92162
10 Ar 4.33985 -0.0390499 0.0553743
11 Ar 4.45385 0.0880628 4.36057
12 Ar 4.40961 0.0567811 8.73228
13 Ar 4.56048 4.41021 -0.0562513
14 Ar 4.34824 4.53665 4.44862
15 Ar 4.59464 4.48533 8.94937
16 Ar 4.45031 9.07736 -0.00696855
17 Ar 4.46274 8.90877 4.34081
18 Ar 4.55194 9.00276 8.71846
19 Ar 8.84686 -0.0518722 -0.0887403
20 Ar 8.77925 0.0353877 4.24743
21 Ar 9.03127 -0.0529586 9.04727
22 Ar 8.8907 4.40752 0.0464009
23 Ar 8.82562 4.46743 4.51897
24 Ar 8.90143 4.5922 8.93209
25 Ar 8.9424 8.87569 0.061108
26 Ar 8.86136 9.03014 4.4055
27 Ar 8.80791 8.90231 8.92737
28 Ar -0.273976 2.1964 2.30296
29 Ar 0.00446396 2.25866 6.67085
30 Ar 0.144208 2.26572 11.2275
31 Ar -0.180019 6.50231 2.34944
32 Ar 0.122895 6.68109 6.86681
33 Ar 0.114785 6.60511 11.1159
34 Ar -0.0666695 10.9669 2.27477
35 Ar -0.0358061 11.029 6.60129
36 Ar -0.0764729 11.2903 11.0783
37 Ar 4.33324 2.21314 2.19614
38 Ar 4.54408 2.19545 6.6477
39 Ar 4.43863 2.15367 11.014
40 Ar 4.56187 6.66241 2.26311
41 Ar 4.41319 6.64611 6.61303
42 Ar 4.47305 6.85031 11.1608
43 Ar 4.43166 11.1121 2.07997
44 Ar 4.50229 11.066 6.65056
45 Ar 4.52693 10.9862 10.9263
46 Ar 8.71573 2.04939 2.01538
47 Ar 9.05166 2.40656 6.77494
48 Ar 8.85221 2.25562 11.1923
49 Ar 8.73112 6.50701 2.2477
50 Ar 9.05969 6.65996 6.61977
51 Ar 8.89199 6.97461 11.1458
52 Ar 8.78267 11.143 2.38821
53 Ar 8.85747 11.2969 6.89344
54 Ar 8.94438 11.0934 11.193
55 Ar 2.03318 0.19455 2.32126
56 Ar 2.2334 0.0104014 6.50354
57 Ar 2.22425 -0.0352552 11.0595
58 Ar 2.09668 4.44596 2.1411
59 Ar 2.30523 4.47032 6.96645
60 Ar 2.23343 4.66862 11.07
61 Ar 2.02722 8.82783 2.22976
62 Ar 2.33208 8.93294 6.5903
63 Ar 2.21318 9.0631 11.1461
64 Ar 6.62091 -0.0137558 2.08679
65 Ar 6.89386 0.0212906 6.43455
66 Ar 6.64109 -0.0897295 11.1176
67 Ar 6.7467 4.21735 2.12194
68 Ar 6.70425 4.46443 6.61507
69 Ar 6.92886 4.61124 11.2067
70 Ar 6.6644 8.94219 2.20229
71 Ar 6.79742 8.96752 6.64148
72 Ar 6.71432 8.94048 11.0823
73 Ar 11.0057 -0.127689 2.04835
74 Ar 11.1737 0.0296934 6.76316
75 Ar 11.1804 0.0173606 11.1135
76 Ar 11.196 4.31734 2.41344
77 Ar 11.1592 4.59614 6.74456
78 Ar 11.0506 4.40226 11.2283
79 Ar 11.0865 8.8512 2.26487
80 Ar 11.0904 8.81291 6.78961
81 Ar 11.2528 8.77541 11.134
82 Ar 2.34189 2.28382 0.0307421
83 Ar 2.1146 2.30613 4.41619
84 Ar 2.16809 1.97729 8.77103
85 Ar 2.30842 6.64315 0.011217
86 Ar 2.06402 6.63711 4.48775
87 Ar 2.42077 6.86759 8.97174
88 Ar 2.04987 11.26 -0.0230548
89 Ar 2.24756 11.2185 4.32025
90 Ar 2.22079 11.0484 8.87995
91 Ar 6.55496 2.14346 -0.176759
92 Ar 6.69121 2.16287 4.29482
93 Ar 6.71081 2.11155 9.01629
94 Ar 6.78641 6.74361 0.011266
95 Ar 6.87806 6.62387 4.57542
96 Ar 6.70789 6.69136 8.91006
97 Ar 6.71392 10.9987 -0.0849897
98 Ar 6.56385 11.1668 4.37184
99 Ar 6.749 11.1459 8.87796
100 Ar 11.1003 2.09854 -0.0657674
101 Ar 11.0755 2.17888 4.51937
102 Ar 11.0988 2.32968 8.91283
103 Ar 10.9436 6.50559 0.268116
104 Ar 11.0679 6.65228 4.39234
105 Ar 11.0838 6.66134 9.03362
106 Ar 11.1811 11.0364 -0.0339754
107 Ar 11.0149 11.22 4.45251
108 Ar 11.3262 10.9735 8.96206
ITEM: TIMESTEP
2020
ITEM: NUMBER OF ATOMS
108
ITEM: BOX BOUNDS pp pp pp
0.0000000000000000e+00 1.3349999400000000e+01
0.0000000000000000e+00 1.3349999400000000e+01
0.0000000000000000e+00 1.3349999400000000e+01
ITEM: ATOMS id element xu yu zu
1 Ar 0.010424 0.154803 0.00500255
2 Ar -0.179553 0.091777 4.37159
3 Ar -0.00409554 -0.0814816 8.85989
4 Ar 0.0425907 4.52817 0.0500747
5 Ar 0.153531 4.4479 4.5212
6 Ar -0.0689109 4.35965 9.18506
7 Ar 0.04403 8.88488 -0.0258247
8 Ar -0.0506015 8.81696 4.59333
9 Ar 0.0978755 8.81359 8.92875
10 Ar 4.34943 -0.0370024 0.0743668
11 Ar 4.44819 0.0864847 4.37562
12 Ar 4.42605 0.0494515 8.75672
13 Ar 4.54397 4.42046 -0.0549667
14 Ar 4.36114 4.56051 4.43384
15 Ar 4.59201 4.48878 8.92431
16 Ar 4.46263 9.07269 -0.012144
17 Ar 4.44228 8.92135 4.34116
18 Ar 4.54249 9.00056 8.71729
19 Ar 8.86294 -0.0569912 -0.0914368
20 Ar 8.74759 0.0307149 4.23782
21 Ar 9.04056 -0.0511853 9.03703
22 Ar 8.88016 4.4073 0.0456894
23 Ar 8.82152 4.45627 4.50333
24 Ar 8.90224 4.57486 8.9096
25 Ar 8.91648 8.85027 0.0495905
26 Ar 8.87311 8.99839 4.40684
27 Ar 8.79667 8.90235 8.93344
28 Ar -0.253465 2.17356 2.29421
29 Ar 0.023166 2.23326 6.67927
30 Ar 0.148742 2.26235 11.22
31 Ar -0.171404 6.50881 2.35731
32 Ar 0.101942 6.68061 6.83033
33 Ar 0.139401 6.5982 11.1256
34 Ar -0.0658401 10.9706 2.26688
35 Ar -0.0466152 11.0481 6.60389
36 Ar -0.0807275 11.3125 11.0753
37 Ar 4.36309 2.22305 2.19253
38 Ar 4.54458 2.19701 6.65309
39 Ar 4.44572 2.14915 11.0368
40 Ar 4.5572 6.67481 2.26526
41 Ar 4.41424 6.6486 6.61964
42 Ar 4.48154 6.8403 11.1709
43 Ar 4.43082 11.113 2.0605
44 Ar 4.50149 11.0593 6.64013
45 Ar 4.51085 10.9903 10.9191
46 Ar 8.73134 2.04965 2.02105
47 Ar 9.0389 2.43578 6.79216
48 Ar 8.86204 2.25439 11.1945
49 Ar 8.73974 6.51865 2.24718
50 Ar 9.05316 6.66162 6.61661
51 Ar 8.88588 6.96613 11.1363
52 Ar 8.78473 11.1271 2.39672
53 Ar 8.86988 11.2979 6.8811
54 Ar 8.93418 11.0887 11.2102
55 Ar 2.01135 0.178179 2.32075
56 Ar 2.24079 -0.00529006 6.53103
57 Ar 2.23225 -0.0465476 11.059
58 Ar 2.09445 4.44574 2.14717
59 Ar 2.32153 4.48012 6.95268
60 Ar 2.2266 4.67682 11.0797
61 Ar 2.01503 8.83893 2.2248
62 Ar 2.3395 8.92092 6.58677
63 Ar 2.23431 9.0531 11.1498
64 Ar 6.60616 0.00441951 2.0779
65 Ar 6.87492 0.00284666 6.43546
66 Ar 6.64131 -0.0770984 11.1349
67 Ar 6.73804 4.20001 2.13374
68 Ar 6.67102 4.47254 6.60573
69 Ar 6.92456 4.59753 11.2204
70 Ar 6.65521 8.91109 2.21655
71 Ar 6.80356 8.98142 6.65846
72 Ar 6.69698 8.93385 11.1019
73 Ar 11.0066 -0.100655 2.04595
74 Ar 11.1716 0.0288175 6.76468
75 Ar 11.1671 0.0133269 11.1069
76 Ar 11.2138 4.31826 2.43688
77 Ar 11.165 4.58641 6.74484
78 Ar 11.074 4.40497 11.2425
79 Ar 11.0903 8.85195 2.26406
80 Ar 11.078 8.8183 6.80504
81 Ar 11.2332 8.77484 11.1051
82 Ar 2.33513 2.28959 0.0153911
83 Ar 2.11289 2.30608 4.41819
84 Ar 2.15594 1.96417 8.76632
85 Ar 2.3327 6.65636 0.024205
86 Ar 2.07874 6.6567 4.47812
87 Ar 2.41495 6.84118 8.94811
88 Ar 2.04928 11.2593 -0.0227367
89 Ar 2.2312 11.2239 4.31486
90 Ar 2.23447 11.0585 8.86502
91 Ar 6.56128 2.14074 -0.175825
92 Ar 6.70019 2.15866 4.29115
93 Ar 6.72068 2.10207 9.02594
94 Ar 6.78667 6.74921 0.00303186
95 Ar 6.87655 6.6106 4.57593
96 Ar 6.71947 6.69164 8.9148
97 Ar 6.707 10.9853 -0.0763431
98 Ar 6.56388 11.1755 4.34718
99 Ar 6.7438 11.1506 8.84895
100 Ar 11.0988 2.1185 -0.078854
101 Ar 11.097 2.17233 4.52457
102 Ar 11.1103 2.32566 8.90601
103 Ar 10.9371 6.5173 0.2948
104 Ar 11.0488 6.64702 4.39139
105 Ar 11.0987 6.68154 9.03861
106 Ar 11.1733 11.0372 -0.0251646
107 Ar 11.0243 11.2199 4.45784
108 Ar 11.3104 10.9705 8.94218
ITEM: TIMESTEP
2030
ITEM: NUMBER OF ATOMS
108
ITEM: BOX BOUNDS pp pp pp
0.0000000000000000e+00 1.3349999400000000e+01
0.0000000000000000e+00 1.3349999400000000e+01
0.0000000000000000e+00 1.3349999400000000e+01
ITEM: ATOMS id element xu yu zu
1 Ar 0.00696487 0.146149 -0.00620669
2 Ar -0.16923 0.100159 4.38038
3 Ar 0.00683848 -0.0753516 8.85314
4 Ar 0.0204303 4.53757 0.0581997
5 Ar 0.144722 4.44675 4.52375
6 Ar -0.0720051 4.37606 9.18744
7 Ar 0.0728248 8.90232 -0.0249029
8 Ar -0.0452117 8.82158 4.60558
9 Ar 0.0843822 8.82394 8.93592
10 Ar 4.35894 -0.0352722 0.0908852
11 Ar 4.44198 0.083805 4.39079
12 Ar 4.44424 0.0394235 8.78177
13 Ar 4.52695 4.43224 -0.0539993
14 Ar 4.37483 4.58228 4.4185
15 Ar 4.58934 4.49116 8.90081
16 Ar 4.47306 9.06487 -0.0173361
17 Ar 4.42162 8.93315 4.34214
18 Ar 4.53338 8.99568 8.71786
19 Ar 8.87893 -0.0632635 -0.0941735
20 Ar 8.71998 0.0264846 4.23072
21 Ar 9.04859 -0.0478765 9.02619
22 Ar 8.87071 4.40628 0.0454206
23 Ar 8.81985 4.44203 4.48605
24 Ar 8.90277 4.55664 8.88796
25 Ar 8.89169 8.8267 0.0393414
26 Ar 8.88557 8.96511 4.41005
27 Ar 8.78801 8.90353 8.9383
28 Ar -0.229922 2.15168 2.28327
29 Ar 0.0409792 2.20863 6.68813
30 Ar 0.152513 2.25822 11.2118
31 Ar -0.160048 6.51877 2.36316
32 Ar 0.0798922 6.67881 6.79354
33 Ar 0.161082 6.5945 11.1366
34 Ar -0.065553 10.9771 2.25922
35 Ar -0.056282 11.0684 6.60653
36 Ar -0.08285 11.3314 11.0744
37 Ar 4.39379 2.23395 2.18987
38 Ar 4.54487 2.19976 6.65777
39 Ar 4.45123 2.14622 11.0595
40 Ar 4.55184 6.68665 2.26653
41 Ar 4.41722 6.65257 6.62617
42 Ar 4.49109 6.8292 11.1809
43 Ar 4.42845 11.1147 2.04371
44 Ar 4.50051 11.0556 6.62818
45 Ar 4.49394 10.998 10.9143
46 Ar 8.75118 2.05215 2.02781
47 Ar 9.02327 2.46176 6.80816
48 Ar 8.87275 2.25226 11.1951
49 Ar 8.74938 6.53195 2.24805
50 Ar 9.04413 6.6643 6.61557
51 Ar 8.8812 6.95281 11.1275
52 Ar 8.7881 11.1105 2.3999
53 Ar 8.8858 11.2961 6.86479
54 Ar 8.92508 11.0831 11.2255
55 Ar 1.99146 0.159454 2.31843
56 Ar 2.24734 -0.0224293 6.55835
57 Ar 2.24143 -0.0578092 11.0591
58 Ar 2.09481 4.44565 2.15465
59 Ar 2.33616 4.48871 6.93732
60 Ar 2.22353 4.68017 11.0895
61 Ar 2.00576 8.84948 2.22021
62 Ar 2.34523 8.90926 6.58315
63 Ar 2.25492 9.0417 11.1541
64 Ar 6.59025 0.0211803 2.06869
65 Ar 6.85281 -0.0136053 6.44066
66 Ar 6.64093 -0.0655047 11.1519
67 Ar 6.72673 4.18606 2.14646
68 Ar 6.63728 4.4791 6.59834
69 Ar 6.91663 4.58289 11.2322
70 Ar 6.64642 8.87914 2.23132
71 Ar 6.80883 8.9939 6.67403
72 Ar 6.67855 8.92721 11.1214
73 Ar 11.0085 -0.0733608 2.04539
74 Ar 11.168 0.0275534 6.76544
75 Ar 11.1535 0.0100651 11.1004
76 Ar 11.2274 4.3192 2.45845
77 Ar 11.1732 4.57546 6.74414
78 Ar 11.0973 4.40943 11.2568
79 Ar 11.0939 8.85342 2.26319
80 Ar 11.0658 8.82501 6.81879
81 Ar 11.2138 8.77603 11.0781
82 Ar 2.32665 2.2952 -0.00141279
83 Ar 2.11364 2.30563 4.42152
84 Ar 2.14479 1.95532 8.76375
85 Ar 2.35674 6.67113 0.0381584
86 Ar 2.09635 6.67695 4.46782
87 Ar 2.40818 6.81382 8.92401
88 Ar 2.05007 11.2575 -0.0213548
89 Ar 2.21457 11.228 4.3103
90 Ar 2.24754 11.0701 8.84876
91 Ar 6.56792 2.13844 -0.173894
92 Ar 6.70805 2.15664 4.28998
93 Ar 6.7314 2.09418 9.03309
94 Ar 6.78398 6.75413 -0.00495665
95 Ar 6.87065 6.59994 4.57464
96 Ar 6.72996 6.69222 8.91817
97 Ar 6.70026 10.9746 -0.0664451
98 Ar 6.56365 11.1835 4.32364
99 Ar 6.73728 11.1572 8.82092
100 Ar 11.0972 2.14098 -0.0906905
101 Ar 11.1159 2.16657 4.5302
102 Ar 11.1226 2.32015 8.90077
103 Ar 10.9334 6.53054 0.317782
104 Ar 11.0299 6.64219 4.39203
105 Ar 11.1148 6.70097 9.04257
106 Ar 11.1649 11.0383 -0.0160849
107 Ar 11.0344 11.2189 4.46435
108 Ar 11.291 10.9684 8.92147
ITEM: TIMESTEP
2040
ITEM: NUMBER OF ATOMS
108
ITEM: BOX BOUNDS pp pp pp
0.0000000000000000e+00 1.3349999400000000e+01
0.0000000000000000e+00 1.3349999400000000e+01
0.0000000000000000e+00 1.3349999400000000e+01
ITEM: ATOMS id element xu yu zu
1 Ar 0.00338998 0.135646 -0.0171819
2 Ar -0.157637 0.10523 4.39111
3 Ar 0.0171919 -0.0682582 8.84596
4 Ar -0.00314073 4.54551 0.0653689
5 Ar 0.133273 4.44545 4.52835
6 Ar -0.0735967 4.39358 9.18488
7 Ar 0.0995482 8.91786 -0.0249215
8 Ar -0.0409267 8.8271 4.61639
9 Ar 0.0714132 8.83518 8.94291
10 Ar 4.36789 -0.0336937 0.104542
11 Ar 4.43514 0.080175 4.40573
12 Ar 4.46393 0.0271624 8.80709
13 Ar 4.50979 4.44528 -0.0531876
14 Ar 4.38902 4.6016 4.40277
15 Ar 4.58672 4.49226 8.87954
16 Ar 4.48138 9.05401 -0.022366
17 Ar 4.40112 8.9442 4.34365
18 Ar 4.52471 8.98814 8.72028
19 Ar 8.89456 -0.0705109 -0.0966569
20 Ar 8.69694 0.0225901 4.22622
21 Ar 9.05504 -0.0432375 9.01485
22 Ar 8.86255 4.40467 0.0458025
23 Ar 8.8205 4.4249 4.46751
24 Ar 8.90307 4.5382 8.86794
25 Ar 8.86854 8.80549 0.0305682
26 Ar 8.89844 8.93095 4.41509
27 Ar 8.78184 8.906 8.94213
28 Ar -0.203883 2.13152 2.27015
29 Ar 0.0576769 2.18526 6.69717
30 Ar 0.155447 2.25337 11.2028
31 Ar -0.146149 6.53215 2.36713
32 Ar 0.0570311 6.67587 6.75697
33 Ar 0.17943 6.59465 11.1491
34 Ar -0.0660814 10.9864 2.25193
35 Ar -0.0645807 11.0894 6.60919
36 Ar -0.0830222 11.3464 11.0751
37 Ar 4.42423 2.24551 2.18817
38 Ar 4.54486 2.20344 6.66178
39 Ar 4.45504 2.14506 11.0819
40 Ar 4.54581 6.69783 2.26682
41 Ar 4.42228 6.65824 6.6324
42 Ar 4.50139 6.81689 11.1902
43 Ar 4.42451 11.1169 2.03002
44 Ar 4.49933 11.0549 6.61477
45 Ar 4.47678 11.0092 10.9119
46 Ar 8.77493 2.05691 2.03549
47 Ar 9.00494 2.48387 6.82232
48 Ar 8.88429 2.24937 11.1942
49 Ar 8.75953 6.54642 2.25033
50 Ar 9.03274 6.66761 6.61678
51 Ar 8.878 6.93454 11.1193
52 Ar 8.79285 11.0933 2.39775
53 Ar 8.90483 11.2914 6.84457
54 Ar 8.91694 11.0767 11.2385
55 Ar 1.97426 0.13877 2.3142
56 Ar 2.25325 -0.0409017 6.58503
57 Ar 2.25177 -0.0688053 11.0599
58 Ar 2.09767 4.44558 2.16332
59 Ar 2.34869 4.49579 6.9202
60 Ar 2.22448 4.67845 11.0994
61 Ar 1.99967 8.85951 2.21623
62 Ar 2.34892 8.89825 6.5797
63 Ar 2.27468 9.02898 11.1584
64 Ar 6.5738 0.0362654 2.0593
65 Ar 6.8279 -0.0279362 6.45003
66 Ar 6.64011 -0.0554748 11.1682
67 Ar 6.71324 4.17603 2.15965
68 Ar 6.60371 4.48396 6.59286
69 Ar 6.90514 4.56745 11.2418
70 Ar 6.63821 8.84692 2.2466
71 Ar 6.81313 9.00474 6.6876
72 Ar 6.65931 8.92081 11.14
73 Ar 11.0113 -0.0462888 2.04682
74 Ar 11.163 0.0261397 6.76535
75 Ar 11.1397 0.00761888 11.0941
76 Ar 11.2369 4.31992 2.47777
77 Ar 11.1834 4.56351 6.74249
78 Ar 11.1199 4.41584 11.271
79 Ar 11.0976 8.85572 2.26228
80 Ar 11.0541 8.83287 6.83049
81 Ar 11.195 8.77927 11.0541
82 Ar 2.31665 2.30051 -0.0190618
83 Ar 2.11709 2.3047 4.42605
84 Ar 2.13534 1.95106 8.76358
85 Ar 2.38007 6.68715 0.0529577
86 Ar 2.11649 6.69737 4.45692
87 Ar 2.40031 6.78602 8.89994
88 Ar 2.05242 11.2547 -0.0190625
89 Ar 2.19784 11.2307 4.30675
90 Ar 2.25966 11.0827 8.83141
91 Ar 6.57501 2.13686 -0.170821
92 Ar 6.71456 2.15673 4.29168
93 Ar 6.7427 2.08801 9.03775
94 Ar 6.77825 6.75784 -0.0123851
95 Ar 6.86051 6.59211 4.57151
96 Ar 6.73915 6.69293 8.92019
97 Ar 6.69393 10.967 -0.0552312
98 Ar 6.56301 11.1902 4.30143
99 Ar 6.72959 11.1655 8.79459
100 Ar 11.0958 2.16553 -0.101
101 Ar 11.1321 2.1616 4.53638
102 Ar 11.1357 2.31329 8.89719
103 Ar 10.9328 6.54503 0.336649
104 Ar 11.0117 6.63792 4.39423
105 Ar 11.1316 6.71881 9.0452
106 Ar 11.156 11.0394 -0.00686068
107 Ar 11.0448 11.217 4.47171
108 Ar 11.2684 10.9678 8.90056
ITEM: TIMESTEP
2050
ITEM: NUMBER OF ATOMS
108
ITEM: BOX BOUNDS pp pp pp
0.0000000000000000e+00 1.3349999400000000e+01
0.0000000000000000e+00 1.3349999400000000e+01
0.0000000000000000e+00 1.3349999400000000e+01
ITEM: ATOMS id element xu yu zu
1 Ar -0.000471442 0.123519 -0.027976
2 Ar -0.144883 0.106851 4.40374
3 Ar 0.0265222 -0.0606303 8.83871
4 Ar -0.0275093 4.552 0.0718076
5 Ar 0.119735 4.44404 4.5349
6 Ar -0.0735556 4.41202 9.17737
7 Ar 0.123524 8.93134 -0.0262721
8 Ar -0.0379429 8.83367 4.62559
9 Ar 0.0595779 8.84711 8.94955
10 Ar 4.3758 -0.0320856 0.114986
11 Ar 4.4276 0.075763 4.42008
12 Ar 4.48478 0.0132291 8.83232
13 Ar 4.49281 4.45925 -0.0523464
14 Ar 4.40338 4.61819 4.38683
15 Ar 4.58421 4.49193 8.86113
16 Ar 4.48747 9.04036 -0.0270041
17 Ar 4.38112 8.95455 4.34554
18 Ar 4.51655 8.97807 8.72462
19 Ar 8.90955 -0.078498 -0.0985953
20 Ar 8.6788 0.0188918 4.22437
21 Ar 9.05961 -0.037509 9.00305
22 Ar 8.85582 4.40275 0.0469979
23 Ar 8.82327 4.40524 4.44814
24 Ar 8.9032 4.52025 8.85027
25 Ar 8.84752 8.78703 0.0233916
26 Ar 8.91145 8.8966 4.42181
27 Ar 8.77799 8.90983 8.94516
28 Ar -0.175901 2.11379 2.25498
29 Ar 0.0730439 2.16359 6.70609
30 Ar 0.157447 2.24787 11.1929
31 Ar -0.129977 6.54878 2.36937
32 Ar 0.0336684 6.67203 6.72113
33 Ar 0.194227 6.59901 11.1629
34 Ar -0.0676609 10.9984 2.24513
35 Ar -0.0713316 11.1108 6.61189
36 Ar -0.0814786 11.3573 11.0773
37 Ar 4.45332 2.25741 2.18738
38 Ar 4.54445 2.20773 6.66519
39 Ar 4.45711 2.14579 11.1033
40 Ar 4.53913 6.70822 2.26611
41 Ar 4.42949 6.66576 6.6381
42 Ar 4.51213 6.80327 11.1983
43 Ar 4.419 11.1194 2.01974
44 Ar 4.49792 11.0571 6.60004
45 Ar 4.45991 11.0236 10.9121
46 Ar 8.80212 2.06393 2.04396
47 Ar 8.98415 2.50152 6.83403
48 Ar 8.89656 2.2459 11.1915
49 Ar 8.7697 6.56161 2.25398
50 Ar 9.0192 6.67113 6.62031
51 Ar 8.87628 6.91139 11.1118
52 Ar 8.79903 11.0757 2.39043
53 Ar 8.92638 11.2842 6.82059
54 Ar 8.90963 11.0695 11.2491
55 Ar 1.9604 0.116496 2.30801
56 Ar 2.25872 -0.0604916 6.61067
57 Ar 2.26318 -0.0792936 11.0614
58 Ar 2.10284 4.44545 2.17294
59 Ar 2.35877 4.50108 6.90113
60 Ar 2.22948 4.67162 11.1093
61 Ar 1.99696 8.8691 2.21307
62 Ar 2.3503 8.88812 6.57674
63 Ar 2.29333 9.01504 11.1622
64 Ar 6.55751 0.0494855 2.05001
65 Ar 6.80068 -0.0400952 6.46334
66 Ar 6.63904 -0.0474276 11.1838
67 Ar 6.69815 4.17038 2.17288
68 Ar 6.57101 4.48707 6.58916
69 Ar 6.89021 4.55129 11.2487
70 Ar 6.63072 8.81505 2.26235
71 Ar 6.81639 9.01375 6.69869
72 Ar 6.63963 8.91491 11.1571
73 Ar 11.015 -0.0198951 2.05035
74 Ar 11.1565 0.0248309 6.76434
75 Ar 11.1259 0.00597565 11.088
76 Ar 11.2425 4.32024 2.49451
77 Ar 11.1954 4.55073 6.73993
78 Ar 11.1415 4.42435 11.2845
79 Ar 11.1012 8.85897 2.26138
80 Ar 11.0429 8.84162 6.83977
81 Ar 11.177 8.78483 11.0338
82 Ar 2.30536 2.30539 -0.036946
83 Ar 2.12336 2.30327 4.43164
84 Ar 2.12829 1.95161 8.76608
85 Ar 2.40218 6.70408 0.0684167
86 Ar 2.13876 6.71746 4.44549
87 Ar 2.39115 6.75825 8.87638
88 Ar 2.0565 11.251 -0.0160272
89 Ar 2.18119 11.2319 4.3044
90 Ar 2.27055 11.0958 8.81328
91 Ar 6.58269 2.13624 -0.166482
92 Ar 6.71955 2.15874 4.29654
93 Ar 6.75424 2.08364 9.03997
94 Ar 6.76948 6.75983 -0.0189518
95 Ar 6.84642 6.58715 4.56658
96 Ar 6.74688 6.6936 8.92091
97 Ar 6.68817 10.9626 -0.0426759
98 Ar 6.56185 11.1955 4.28069
99 Ar 6.72099 11.1754 8.77058
100 Ar 11.0948 2.19162 -0.109523
101 Ar 11.1452 2.15742 4.54314
102 Ar 11.1496 2.30525 8.89533
103 Ar 10.9353 6.56048 0.351066
104 Ar 10.9947 6.63425 4.39792
105 Ar 11.1489 6.73435 9.04621
106 Ar 11.1467 11.0403 0.00238368
107 Ar 11.0554 11.2144 4.47956
108 Ar 11.2431 10.9688 8.88009
ITEM: TIMESTEP
2060
ITEM: NUMBER OF ATOMS
108
ITEM: BOX BOUNDS pp pp pp
0.0000000000000000e+00 1.3349999400000000e+01
0.0000000000000000e+00 1.3349999400000000e+01
0.0000000000000000e+00 1.3349999400000000e+01
ITEM: ATOMS id element xu yu zu
1 Ar -0.00478431 0.110013 -0.0386342
2 Ar -0.131091 0.105052 4.41816
3 Ar 0.0344378 -0.0529011 8.83175
4 Ar -0.0520135 4.55705 0.0777823
5 Ar 0.104691 4.44252 4.54319
6 Ar -0.0717659 4.4312 9.16505
7 Ar 0.144173 8.94265 -0.0292217
8 Ar -0.0363992 8.84138 4.63301
9 Ar 0.0493954 8.85962 8.95564
10 Ar 4.38221 -0.030266 0.121919
11 Ar 4.41933 0.0707469 4.43351
12 Ar 4.50642 -0.0017439 8.85711
13 Ar 4.47635 4.4738 -0.051267
14 Ar 4.41757 4.6318 4.37089
15 Ar 4.58179 4.49005 8.84609
16 Ar 4.4913 9.0243 -0.0309835
17 Ar 4.362 8.96428 4.34766
18 Ar 4.50894 8.96577 8.73088
19 Ar 8.92366 -0.0869467 -0.0997111
20 Ar 8.66572 0.0152406 4.22515
21 Ar 9.062 -0.0309543 8.99078
22 Ar 8.85055 4.4008 0.0491083
23 Ar 8.82791 4.38352 4.42836
24 Ar 8.90325 4.50348 8.83566
25 Ar 8.82898 8.77161 0.0178439
26 Ar 8.92429 8.86283 4.43003
27 Ar 8.77622 8.91502 8.94765
28 Ar -0.146516 2.09909 2.23798
29 Ar 0.0868954 2.144 6.71461
30 Ar 0.158393 2.24181 11.1823
31 Ar -0.111855 6.56837 2.37009
32 Ar 0.0101362 6.66752 6.68647
33 Ar 0.205448 6.60769 11.178
34 Ar -0.0704781 11.0131 2.2389
35 Ar -0.0764099 11.1322 6.61469
36 Ar -0.0784813 11.3638 11.0804
37 Ar 4.48001 2.26928 2.18744
38 Ar 4.54349 2.2123 6.6681
39 Ar 4.45748 2.14845 11.1234
40 Ar 4.5318 6.71773 2.2644
41 Ar 4.43886 6.6752 6.6431
42 Ar 4.52298 6.78822 11.2047
43 Ar 4.41196 11.1219 2.01313
44 Ar 4.49627 11.0618 6.58418
45 Ar 4.44378 11.0408 10.9149
46 Ar 8.83211 2.07315 2.05313
47 Ar 8.96119 2.51417 6.84272
48 Ar 8.90943 2.24204 11.1873
49 Ar 8.77953 6.57702 2.2589
50 Ar 9.00371 6.67444 6.62619
51 Ar 8.87605 6.88353 11.1049
52 Ar 8.80665 11.0578 2.37826
53 Ar 8.94967 11.2746 6.79307
54 Ar 8.90298 11.0615 11.2568
55 Ar 1.95046 0.0929825 2.29985
56 Ar 2.26397 -0.0808617 6.63491
57 Ar 2.27549 -0.0890256 11.0637
58 Ar 2.11008 4.4452 2.18327
59 Ar 2.36617 4.50439 6.8799
60 Ar 2.23833 4.65989 11.1191
61 Ar 1.9977 8.87839 2.21094
62 Ar 2.34914 8.87911 6.57457
63 Ar 2.31066 9 11.1653
64 Ar 6.54213 0.0607134 2.04116
65 Ar 6.7717 -0.0500828 6.48022
66 Ar 6.63791 -0.0416615 11.1985
67 Ar 6.6821 4.1695 2.18571
68 Ar 6.53991 4.4884 6.58708
69 Ar 6.87204 4.53448 11.2528
70 Ar 6.62411 8.78417 2.2785
71 Ar 6.8185 9.02081 6.70689
72 Ar 6.6199 8.90973 11.1721
73 Ar 11.0197 0.00539409 2.05607
74 Ar 11.1487 0.0238886 6.76234
75 Ar 11.1126 0.00506649 11.0823
76 Ar 11.2447 4.32005 2.50832
77 Ar 11.2088 4.53724 6.73657
78 Ar 11.1616 4.4351 11.2969
79 Ar 11.105 8.86325 2.26057
80 Ar 11.0325 8.85095 6.84634
81 Ar 11.1599 8.79288 11.0178
82 Ar 2.29301 2.30973 -0.0544728
83 Ar 2.13247 2.30131 4.43811
84 Ar 2.12428 1.95708 8.7714
85 Ar 2.42255 6.72157 0.0842866
86 Ar 2.1627 6.73674 4.43367
87 Ar 2.38053 6.73094 8.85384
88 Ar 2.06243 11.2465 -0.0124299
89 Ar 2.1648 11.2318 4.30341
90 Ar 2.27999 11.109 8.79472
91 Ar 6.59114 2.13683 -0.160783
92 Ar 6.7229 2.16243 4.30474
93 Ar 6.76568 2.08111 9.03989
94 Ar 6.75778 6.75962 -0.0243798
95 Ar 6.82881 6.585 4.55996
96 Ar 6.75302 6.69409 8.92042
97 Ar 6.68307 10.9615 -0.0287967
98 Ar 6.56015 11.1991 4.26155
99 Ar 6.7118 11.1868 8.74936
100 Ar 11.0946 2.21865 -0.116028
101 Ar 11.1552 2.15399 4.55049
102 Ar 11.1641 2.29625 8.89515
103 Ar 10.9409 6.57664 0.360788
104 Ar 10.9792 6.63117 4.40303
105 Ar 11.1662 6.74698 9.04538
106 Ar 11.1371 11.0409 0.0115209
107 Ar 11.066 11.2111 4.48748
108 Ar 11.2156 10.9719 8.86072
ITEM: TIMESTEP
2070
ITEM: NUMBER OF ATOMS
108
ITEM: BOX BOUNDS pp pp pp
0.0000000000000000e+00 1.3349999400000000e+01
0.0000000000000000e+00 1.3349999400000000e+01
0.0000000000000000e+00 1.3349999400000000e+01
ITEM: ATOMS id element xu yu zu
1 Ar -0.00969656 0.0953884 -0.0491871
2 Ar -0.11639 0.100023 4.43411
3 Ar 0.040627 -0.0454754 8.82551
4 Ar -0.0759599 4.56073 0.083582
5 Ar 0.0887381 4.44086 4.55287
6 Ar -0.0681267 4.45093 9.14826
7 Ar 0.161029 8.95176 -0.0339029
8 Ar -0.0363758 8.8503 4.63852
9 Ar 0.0412705 8.87265 8.96104
10 Ar 4.38673 -0.0280674 0.125122
11 Ar 4.41032 0.065307 4.44569
12 Ar 4.52841 -0.0170752 8.88113
13 Ar 4.46068 4.48852 -0.0497197
14 Ar 4.43123 4.64224 4.35521
15 Ar 4.57942 4.48659 8.83485
16 Ar 4.49293 9.00631 -0.0340202
17 Ar 4.34412 8.97348 4.34986
18 Ar 4.50192 8.95158 8.73906
19 Ar 8.93671 -0.0955507 -0.0997522
20 Ar 8.6577 0.0114999 4.22852
21 Ar 9.06198 -0.0238449 8.97803
22 Ar 8.84674 4.39911 0.0521647
23 Ar 8.8341 4.36029 4.40863
24 Ar 8.90332 4.48852 8.8247
25 Ar 8.81319 8.7594 0.0138733
26 Ar 8.93665 8.83042 4.43953
27 Ar 8.77627 8.9215 8.94984
28 Ar -0.11623 2.08792 2.2195
29 Ar 0.0990963 2.12681 6.72242
30 Ar 0.15815 2.23531 11.1708
31 Ar -0.0921463 6.59051 2.36949
32 Ar -0.0132148 6.66262 6.65339
33 Ar 0.213239 6.62051 11.1942
34 Ar -0.0746629 11.0302 2.23326
35 Ar -0.0797536 11.1531 6.61767
36 Ar -0.0742976 11.3658 11.0842
37 Ar 4.50334 2.28078 2.18826
38 Ar 4.54183 2.21682 6.6706
39 Ar 4.45626 2.15304 11.1418
40 Ar 4.52384 6.72623 2.26173
41 Ar 4.45028 6.6866 6.64723
42 Ar 4.53357 6.7717 11.209
43 Ar 4.40344 11.1241 2.0103
44 Ar 4.49434 11.0685 6.56748
45 Ar 4.42881 11.0603 10.9203
46 Ar 8.86419 2.08449 2.06291
47 Ar 8.93644 2.52139 6.84786
48 Ar 8.92271 2.23798 11.1814
49 Ar 8.7887 6.59219 2.26491
50 Ar 8.9865 6.67709 6.63437
51 Ar 8.87726 6.85131 11.0987
52 Ar 8.81563 11.0397 2.36171
53 Ar 8.97378 11.2632 6.76229
54 Ar 8.89683 11.0528 11.2615
55 Ar 1.94489 0.0685778 2.28981
56 Ar 2.26921 -0.101543 6.65742
57 Ar 2.28845 -0.0977491 11.0667
58 Ar 2.1191 4.44477 2.19408
59 Ar 2.37079 4.50563 6.85637
60 Ar 2.2506 4.64365 11.1286
61 Ar 2.00189 8.8876 2.20997
62 Ar 2.34529 8.87139 6.57349
63 Ar 2.32654 8.98401 11.1671
64 Ar 6.52838 0.0698744 2.03315
65 Ar 6.7416 -0.057923 6.50017
66 Ar 6.63692 -0.0383471 11.2121
67 Ar 6.66581 4.1737 2.19775
68 Ar 6.51111 4.48802 6.5864
69 Ar 6.85088 4.51709 11.2539
70 Ar 6.6185 8.75492 2.29494
71 Ar 6.81938 9.02588 6.71193
72 Ar 6.60056 8.90549 11.1844
73 Ar 11.0253 0.0291874 2.06396
74 Ar 11.1394 0.0235701 6.75932
75 Ar 11.0999 0.00476983 11.077
76 Ar 11.2438 4.31937 2.5189
77 Ar 11.2232 4.52311 6.73253
78 Ar 11.1799 4.44818 11.3076
79 Ar 11.109 8.86859 2.25995
80 Ar 11.023 8.86052 6.84994
81 Ar 11.144 8.8035 11.0065
82 Ar 2.27979 2.31341 -0.0710825
83 Ar 2.14434 2.29881 4.4453
84 Ar 2.12384 1.96745 8.77963
85 Ar 2.44064 6.73921 0.100262
86 Ar 2.18782 6.75475 4.42163
87 Ar 2.36832 6.70447 8.83273
88 Ar 2.07031 11.2414 -0.00846486
89 Ar 2.14882 11.2301 4.30393
90 Ar 2.28786 11.1217 8.77616
91 Ar 6.60048 2.13878 -0.153677
92 Ar 6.72452 2.16751 4.31631
93 Ar 6.77665 2.08042 9.0377
94 Ar 6.74338 6.75684 -0.0284293
95 Ar 6.80821 6.58546 4.5518
96 Ar 6.7575 6.69427 8.91879
97 Ar 6.67869 10.9636 -0.0136574
98 Ar 6.55797 11.2008 4.24408
99 Ar 6.7024 11.1994 8.73134
100 Ar 11.0953 2.246 -0.120329
101 Ar 11.1622 2.15121 4.55835
102 Ar 11.1791 2.28654 8.89656
103 Ar 10.9496 6.59325 0.365674
104 Ar 10.9658 6.62858 4.40946
105 Ar 11.1833 6.75629 9.04254
106 Ar 11.1273 11.0411 0.0204163
107 Ar 11.0763 11.2071 4.49505
108 Ar 11.1866 10.9773 8.84305
ITEM: TIMESTEP
2080
ITEM: NUMBER OF ATOMS
108
ITEM: BOX BOUNDS pp pp pp
0.0000000000000000e+00 1.3349999400000000e+01
0.0000000000000000e+00 1.3349999400000000e+01
0.0000000000000000e+00 1.3349999400000000e+01
ITEM: ATOMS id element xu yu zu
1 Ar -0.0153296 0.0799121 -0.0596452
2 Ar -0.100915 0.0921054 4.45125
3 Ar 0.0448815 -0.0387012 8.82038
4 Ar -0.0986418 4.56311 0.0894966
5 Ar 0.0724662 4.439 4.56351
6 Ar -0.0625559 4.47102 9.12741
7 Ar 0.173753 8.95868 -0.0403096
8 Ar -0.0378955 8.86048 4.642
9 Ar 0.0354773 8.88614 8.9656
10 Ar 4.38905 -0.0253489 0.124476
11 Ar 4.40063 0.0596204 4.45631
12 Ar 4.55029 -0.0320569 8.90403
13 Ar 4.44606 4.50301 -0.0474593
14 Ar 4.444 4.64938 4.34007
15 Ar 4.57696 4.48155 8.82771
16 Ar 4.49249 8.98699 -0.0358384
17 Ar 4.32782 8.98223 4.35203
18 Ar 4.49547 8.93595 8.74908
19 Ar 8.94852 -0.103991 -0.0985021
20 Ar 8.6546 0.0075618 4.23438
21 Ar 9.05935 -0.0164468 8.96477
22 Ar 8.84429 4.398 0.0561261
23 Ar 8.8415 4.33619 4.38937
24 Ar 8.90352 4.47589 8.81784
25 Ar 8.80028 8.7504 0.0113529
26 Ar 8.94822 8.80013 4.45005
27 Ar 8.77781 8.92914 8.95197
28 Ar -0.0854883 2.08061 2.19994
29 Ar 0.109579 2.11228 6.72927
30 Ar 0.15658 2.22852 11.1585
31 Ar -0.0712375 6.61475 2.36778
32 Ar -0.0360212 6.65765 6.62226
33 Ar 0.217879 6.63708 11.2114
34 Ar -0.0802822 11.0493 2.22822
35 Ar -0.0813708 11.1731 6.62094
36 Ar -0.0691821 11.3633 11.0882
37 Ar 4.5225 2.29153 2.18975