ITEM: TIMESTEP
40000
ITEM: NUMBER OF ATOMS
108
ITEM: BOX BOUNDS pp pp pp
0.0000000000000000e+00 1.3349999400000000e+01
0.0000000000000000e+00 1.3349999400000000e+01
0.0000000000000000e+00 1.3349999400000000e+01
ITEM: ATOMS id element xu yu zu
1 Ar 0.042264 0.123645 0.0539917
2 Ar -0.0246415 0.0668159 4.48973
3 Ar 0.166562 -0.0203151 8.87785
4 Ar 0.0248194 4.58787 0.0143723
5 Ar 0.0126143 4.44494 4.38198
6 Ar -0.15998 4.40677 8.94211
7 Ar -0.0416426 8.81591 0.20921
8 Ar 0.100651 8.96294 4.28053
9 Ar -0.0373332 8.94102 8.8814
10 Ar 4.41055 -0.031778 -0.117271
11 Ar 4.4918 -0.172515 4.55438
12 Ar 4.5858 -0.0860516 8.75297
13 Ar 4.52997 4.52948 0.154021
14 Ar 4.40045 4.40797 4.47485
15 Ar 4.43726 4.57241 8.63024
16 Ar 4.33072 8.88939 -0.0281578
17 Ar 4.5423 9.05272 4.62724
18 Ar 4.40308 8.65968 8.89113
19 Ar 8.73468 0.0820591 0.00799256
20 Ar 8.89802 0.00118176 4.58761
21 Ar 8.80591 -0.184778 8.79653
22 Ar 8.73278 4.47301 -0.0199377
23 Ar 9.06762 4.51955 4.43675
24 Ar 8.95744 4.45415 8.85628
25 Ar 8.87346 8.85866 -0.0913299
26 Ar 8.82898 8.93984 4.39472
27 Ar 9.05123 8.92081 9.01878
28 Ar 0.0464498 2.0943 2.03087
29 Ar 0.0940781 2.13773 6.6362
30 Ar 0.0377545 2.12569 11.1445
31 Ar 0.0972736 6.60164 2.27267
32 Ar -0.0652843 6.6888 6.81594
33 Ar 0.0181355 6.78657 11.1682
34 Ar -0.0557874 11.1905 2.12859
35 Ar -0.0499219 11.1072 6.73729
36 Ar -0.0512902 11.1615 11.2995
37 Ar 4.46729 2.06867 2.2068
38 Ar 4.39633 2.1652 6.7281
39 Ar 4.52697 2.55429 11.1066
40 Ar 4.59104 6.70953 2.39696
41 Ar 4.5194 6.64429 6.48351
42 Ar 4.49402 6.49766 11.0088
43 Ar 4.59803 11.1163 2.05945
44 Ar 4.41097 11.0439 6.87721
45 Ar 4.43735 11.127 11.1095
46 Ar 8.81701 2.33231 2.3118
47 Ar 9.01989 2.36745 6.86713
48 Ar 8.72013 2.19905 11.0836
49 Ar 8.92365 6.39624 2.16033
50 Ar 8.77791 6.52563 6.5384
51 Ar 8.8473 6.74662 10.9398
52 Ar 8.88339 11.1283 2.28583
53 Ar 8.85231 11.067 6.72852
54 Ar 8.88081 11.1584 11.2453
55 Ar 2.29846 -0.025634 2.19609
56 Ar 2.1523 -0.0499387 6.5757
57 Ar 2.08842 0.0810176 11.0398
58 Ar 2.19629 4.45695 2.31339
59 Ar 1.98105 4.43613 6.7827
60 Ar 2.37171 4.65262 10.9853
61 Ar 2.38479 8.98604 2.24109
62 Ar 2.04562 8.84875 6.78257
63 Ar 2.40086 8.90066 11.0645
64 Ar 6.72795 0.00911736 2.2079
65 Ar 6.5867 0.0264334 6.63668
66 Ar 6.6357 0.0742536 10.9878
67 Ar 6.60301 4.50634 2.38799
68 Ar 6.75355 4.24083 6.47129
69 Ar 6.57994 4.40013 11.1704
70 Ar 6.76374 8.96398 2.09523
71 Ar 6.73489 8.90198 6.65019
72 Ar 6.58742 8.77173 11.1421
73 Ar 10.994 0.167824 2.27352
74 Ar 11.0754 0.12778 6.63506
75 Ar 11.1272 0.0153555 11.2164
76 Ar 11.2567 4.30723 2.01685
77 Ar 11.2275 4.46724 6.74122
78 Ar 11.1686 4.48021 11.1011
79 Ar 11.0459 8.86399 2.19505
80 Ar 11.0732 8.73795 6.60133
81 Ar 11.195 8.95278 11.2414
82 Ar 2.33394 2.2789 0.0715797
83 Ar 2.16638 2.18837 4.44522
84 Ar 2.26918 2.23743 8.92047
85 Ar 2.2462 6.80469 0.213098
86 Ar 2.22713 6.7499 4.63864
87 Ar 2.27927 6.70687 8.76269
88 Ar 2.09618 11.1363 -0.0220733
89 Ar 2.25135 11.0357 4.41241
90 Ar 2.15945 11.2191 9.17991
91 Ar 6.5508 2.35911 0.0861844
92 Ar 6.48523 2.17085 4.35524
93 Ar 6.66346 2.21029 8.72054
94 Ar 6.58963 6.67971 0.0275612
95 Ar 6.71073 6.79638 4.42173
96 Ar 6.68101 6.55829 8.73671
97 Ar 6.78298 11.2125 -0.156385
98 Ar 6.80009 11.1263 4.39134
99 Ar 6.63908 10.834 8.95043
100 Ar 11.1062 2.25603 -0.147419
101 Ar 11.1931 2.3805 4.60206
102 Ar 11.2925 2.10436 9.02767
103 Ar 11.0143 6.69378 0.0904714
104 Ar 11.1833 6.6412 4.38156
105 Ar 11.1522 6.59551 8.84244
106 Ar 10.8835 11.1799 0.176258
107 Ar 11.2323 11.1059 4.42925
108 Ar 11.304 11.2291 9.01041
ITEM: TIMESTEP
40010
ITEM: NUMBER OF ATOMS
108
ITEM: BOX BOUNDS pp pp pp
0.0000000000000000e+00 1.3349999400000000e+01
0.0000000000000000e+00 1.3349999400000000e+01
0.0000000000000000e+00 1.3349999400000000e+01
ITEM: ATOMS id element xu yu zu
1 Ar 0.0536913 0.136566 0.0291511
2 Ar -0.0266261 0.0768847 4.47653
3 Ar 0.165437 -0.0181576 8.87758
4 Ar 0.0239828 4.59246 0.00847934
5 Ar 0.0263705 4.43378 4.38009
6 Ar -0.160129 4.4104 8.96091
7 Ar -0.0412374 8.82009 0.203629
8 Ar 0.092347 8.94545 4.28491
9 Ar -0.0449707 8.94259 8.88114
10 Ar 4.39898 -0.0219783 -0.123175
11 Ar 4.50138 -0.153865 4.55161
12 Ar 4.57955 -0.0786541 8.74184
13 Ar 4.50864 4.53137 0.145328
14 Ar 4.3709 4.41085 4.49291
15 Ar 4.43071 4.5763 8.63226
16 Ar 4.33564 8.90172 -0.0206522
17 Ar 4.55027 9.04913 4.62081
18 Ar 4.40991 8.64208 8.89499
19 Ar 8.74277 0.0804565 0.00739942
20 Ar 8.89088 -0.0232807 4.59268
21 Ar 8.81199 -0.185101 8.79712
22 Ar 8.73191 4.46848 -0.0279883
23 Ar 9.06967 4.50975 4.41852
24 Ar 8.94054 4.45919 8.85719
25 Ar 8.8756 8.86912 -0.090985
26 Ar 8.80859 8.95694 4.37301
27 Ar 9.04304 8.92392 9.04805
28 Ar 0.0273044 2.0857 2.0536
29 Ar 0.0916255 2.1431 6.62785
30 Ar 0.0487691 2.10442 11.1494
31 Ar 0.111759 6.59678 2.28976
32 Ar -0.0602983 6.69137 6.82772
33 Ar 0.00276106 6.78047 11.16
34 Ar -0.0615002 11.1805 2.14322
35 Ar -0.0567661 11.1047 6.71509
36 Ar -0.0367524 11.1486 11.2995
37 Ar 4.45655 2.09005 2.21773
38 Ar 4.37011 2.15819 6.72138
39 Ar 4.54363 2.55066 11.1069
40 Ar 4.58608 6.71857 2.39226
41 Ar 4.52063 6.6543 6.47454
42 Ar 4.48962 6.49199 11.0202
43 Ar 4.61193 11.1044 2.06953
44 Ar 4.41618 11.0531 6.8885
45 Ar 4.43208 11.1314 11.0938
46 Ar 8.8264 2.31906 2.32282
47 Ar 9.01025 2.3745 6.84977
48 Ar 8.75717 2.20175 11.0784
49 Ar 8.92638 6.41376 2.16443
50 Ar 8.80971 6.53823 6.53952
51 Ar 8.82583 6.74751 10.9589
52 Ar 8.89175 11.1352 2.29313
53 Ar 8.86633 11.0469 6.71429
54 Ar 8.89355 11.1575 11.2382
55 Ar 2.29247 -0.0181085 2.22037
56 Ar 2.15326 -0.0409398 6.57776
57 Ar 2.09454 0.0803351 11.027
58 Ar 2.20512 4.44273 2.30664
59 Ar 1.99075 4.4364 6.777
60 Ar 2.38934 4.61574 10.9873
61 Ar 2.41166 8.98738 2.24016
62 Ar 2.03725 8.86172 6.75873
63 Ar 2.39564 8.89747 11.0875
64 Ar 6.75217 -0.00366388 2.21298
65 Ar 6.58172 0.0252706 6.6393
66 Ar 6.63348 0.0785532 10.995
67 Ar 6.5893 4.50617 2.36932
68 Ar 6.75256 4.2531 6.4606
69 Ar 6.5531 4.40182 11.1566
70 Ar 6.75236 8.98992 2.09349
71 Ar 6.72957 8.90015 6.64686
72 Ar 6.58074 8.74602 11.1357
73 Ar 10.9972 0.166437 2.27368
74 Ar 11.0983 0.135082 6.61706
75 Ar 11.12 -0.00224491 11.22
76 Ar 11.2692 4.29559 2.00951
77 Ar 11.2283 4.47232 6.73904
78 Ar 11.1579 4.47072 11.0844
79 Ar 11.0743 8.868 2.1908
80 Ar 11.059 8.73168 6.58913
81 Ar 11.1958 8.93552 11.255
82 Ar 2.34994 2.29826 0.0683315
83 Ar 2.17615 2.20131 4.44024
84 Ar 2.27164 2.22204 8.92425
85 Ar 2.23595 6.7886 0.200446
86 Ar 2.22385 6.75947 4.64818
87 Ar 2.26532 6.71961 8.76764
88 Ar 2.0952 11.1388 -0.0313641
89 Ar 2.22855 11.0221 4.41871
90 Ar 2.14173 11.2118 9.17838
91 Ar 6.53626 2.36597 0.106392
92 Ar 6.50791 2.15544 4.36597
93 Ar 6.66661 2.23975 8.7145
94 Ar 6.59862 6.68245 0.0249953
95 Ar 6.71069 6.82224 4.42604
96 Ar 6.68388 6.55864 8.74342
97 Ar 6.77193 11.2373 -0.179276
98 Ar 6.82535 11.1301 4.37718
99 Ar 6.65038 10.8263 8.97052
100 Ar 11.0981 2.25915 -0.143599
101 Ar 11.1809 2.37945 4.61416
102 Ar 11.2913 2.10033 9.05312
103 Ar 11.0026 6.67238 0.0966706
104 Ar 11.1772 6.63959 4.36073
105 Ar 11.1632 6.60283 8.86125
106 Ar 10.8932 11.1919 0.183071
107 Ar 11.2355 11.1129 4.45761
108 Ar 11.2823 11.1988 9.00777
ITEM: TIMESTEP
40020
ITEM: NUMBER OF ATOMS
108
ITEM: BOX BOUNDS pp pp pp
0.0000000000000000e+00 1.3349999400000000e+01
0.0000000000000000e+00 1.3349999400000000e+01
0.0000000000000000e+00 1.3349999400000000e+01
ITEM: ATOMS id element xu yu zu
1 Ar 0.0640446 0.145932 0.00339263
2 Ar -0.0288438 0.0849243 4.46116
3 Ar 0.160466 -0.0154435 8.87614
4 Ar 0.0251042 4.59522 -0.000116505
5 Ar 0.0397037 4.42271 4.3794
6 Ar -0.155922 4.41375 8.98057
7 Ar -0.0401148 8.82529 0.196064
8 Ar 0.082088 8.92691 4.29073
9 Ar -0.0528691 8.94391 8.8832
10 Ar 4.38799 -0.0115054 -0.129236
11 Ar 4.5092 -0.135608 4.54683
12 Ar 4.57048 -0.0699542 8.73491
13 Ar 4.48453 4.53407 0.136675
14 Ar 4.3408 4.41326 4.511
15 Ar 4.42499 4.57784 8.63488
16 Ar 4.34373 8.91406 -0.0137065
17 Ar 4.55693 9.04544 4.61184
18 Ar 4.4183 8.62766 8.89738
19 Ar 8.7528 0.0807417 0.00659491
20 Ar 8.88412 -0.0457532 4.5968
21 Ar 8.819 -0.183556 8.79912
22 Ar 8.73289 4.46284 -0.0375331
23 Ar 9.0701 4.49789 4.40035
24 Ar 8.92318 4.46442 8.86024
25 Ar 8.8772 8.87898 -0.0895167
26 Ar 8.79155 8.97187 4.35178
27 Ar 9.03464 8.9275 9.07454
28 Ar 0.00822283 2.08038 2.07982
29 Ar 0.0876929 2.14991 6.62185
30 Ar 0.0601043 2.08772 11.1551
31 Ar 0.124684 6.5936 2.30723
32 Ar -0.0549932 6.69367 6.83613
33 Ar -0.0114626 6.77375 11.1516
34 Ar -0.0669597 11.1715 2.15873
35 Ar -0.0632806 11.1025 6.69199
36 Ar -0.023326 11.1349 11.2995
37 Ar 4.44488 2.11236 2.22977
38 Ar 4.34313 2.15244 6.71278
39 Ar 4.55658 2.54062 11.1061
40 Ar 4.57808 6.72878 2.38689
41 Ar 4.52187 6.66463 6.46757
42 Ar 4.48579 6.48964 11.0335
43 Ar 4.62448 11.0939 2.08094
44 Ar 4.42028 11.0612 6.898
45 Ar 4.42775 11.1362 11.0784
46 Ar 8.83651 2.30559 2.33301
47 Ar 9.0008 2.37814 6.82986
48 Ar 8.79555 2.20508 11.0726
49 Ar 8.92829 6.43523 2.16991
50 Ar 8.8433 6.55297 6.54265
51 Ar 8.80548 6.74545 10.9806
52 Ar 8.90072 11.1431 2.29949
53 Ar 8.88215 11.0268 6.69987
54 Ar 8.90737 11.1566 11.2278
55 Ar 2.28636 -0.0121056 2.24535
56 Ar 2.15618 -0.0334713 6.58107
57 Ar 2.10581 0.0796795 11.0181
58 Ar 2.21548 4.42849 2.29916
59 Ar 2.00264 4.43665 6.76966
60 Ar 2.40178 4.57676 10.9914
61 Ar 2.43702 8.98801 2.2404
62 Ar 2.03173 8.87764 6.73402
63 Ar 2.38688 8.89264 11.1112
64 Ar 6.77496 -0.0165184 2.21818
65 Ar 6.57998 0.0227296 6.64154
66 Ar 6.63044 0.0826374 11.0027
67 Ar 6.57658 4.50483 2.35089
68 Ar 6.75013 4.26795 6.45042
69 Ar 6.53169 4.40667 11.1407
70 Ar 6.74031 9.01423 2.0919
71 Ar 6.72468 8.89792 6.64526
72 Ar 6.574 8.72163 11.1295
73 Ar 11.0008 0.164337 2.27396
74 Ar 11.1216 0.139774 6.60131
75 Ar 11.112 -0.02071 11.223
76 Ar 11.2797 4.28476 2.00541
77 Ar 11.2286 4.47716 6.73587
78 Ar 11.1453 4.46161 11.07
79 Ar 11.1018 8.87188 2.18817
80 Ar 11.0447 8.72766 6.57729
81 Ar 11.1961 8.91817 11.2681
82 Ar 2.36499 2.31816 0.0625701
83 Ar 2.18742 2.21415 4.43462
84 Ar 2.27437 2.20743 8.92802
85 Ar 2.22691 6.77031 0.18496
86 Ar 2.22008 6.76796 4.65482
87 Ar 2.24912 6.73074 8.77448
88 Ar 2.09655 11.1413 -0.040155
89 Ar 2.20606 11.011 4.42576
90 Ar 2.12551 11.2016 9.17223
91 Ar 6.52359 2.37004 0.125659
92 Ar 6.53285 2.1399 4.37802
93 Ar 6.66942 2.26976 8.7112
94 Ar 6.60842 6.68559 0.0223113
95 Ar 6.71135 6.84607 4.42965
96 Ar 6.68753 6.55978 8.75053
97 Ar 6.7581 11.2601 -0.200066
98 Ar 6.84707 11.1345 4.36499
99 Ar 6.66213 10.8212 8.99064
100 Ar 11.0888 2.26203 -0.139125
101 Ar 11.168 2.37669 4.62285
102 Ar 11.2871 2.09627 9.07659
103 Ar 10.9926 6.65038 0.100195
104 Ar 11.1714 6.63851 4.34011
105 Ar 11.1722 6.61264 8.8818
106 Ar 10.9062 11.2042 0.187847
107 Ar 11.237 11.12 4.48588
108 Ar 11.2583 11.1685 9.00391
ITEM: TIMESTEP
40030
ITEM: NUMBER OF ATOMS
108
ITEM: BOX BOUNDS pp pp pp
0.0000000000000000e+00 1.3349999400000000e+01
0.0000000000000000e+00 1.3349999400000000e+01
0.0000000000000000e+00 1.3349999400000000e+01
ITEM: ATOMS id element xu yu zu
1 Ar 0.0734109 0.151769 -0.0223059
2 Ar -0.031054 0.0909416 4.44396
3 Ar 0.15151 -0.0124975 8.87352
4 Ar 0.0280696 4.59603 -0.0112908
5 Ar 0.0523186 4.4119 4.37995
6 Ar -0.147334 4.41662 9.0006
7 Ar -0.0380829 8.8312 0.186713
8 Ar 0.0699254 8.90754 4.29785
9 Ar -0.060842 8.94507 8.8873
10 Ar 4.37757 -0.00052437 -0.135071
11 Ar 4.51512 -0.118219 4.54005
12 Ar 4.55891 -0.059941 8.7324
13 Ar 4.45831 4.53778 0.128091
14 Ar 4.31094 4.4153 4.52878
15 Ar 4.42008 4.5772 8.63793
16 Ar 4.35487 8.92615 -0.00762847
17 Ar 4.56219 9.04213 4.60059
18 Ar 4.42784 8.61661 8.89833
19 Ar 8.76459 0.0829443 0.00550676
20 Ar 8.87818 -0.0658608 4.60011
21 Ar 8.82686 -0.180189 8.80213
22 Ar 8.73549 4.45615 -0.0482352
23 Ar 9.06872 4.48453 4.38251
24 Ar 8.90574 4.46985 8.86511
25 Ar 8.87823 8.88839 -0.0867856
26 Ar 8.77843 8.98421 4.33119
27 Ar 9.02615 8.93117 9.09795
28 Ar -0.0103154 2.0781 2.10863
29 Ar 0.0824998 2.1582 6.61832
30 Ar 0.0714235 2.07598 11.1612
31 Ar 0.136141 6.59203 2.32455
32 Ar -0.0496345 6.69561 6.84106
33 Ar -0.0242259 6.76633 11.1432
34 Ar -0.071913 11.1637 2.17482
35 Ar -0.0693962 11.1007 6.66866
36 Ar -0.0114797 11.1206 11.2992
37 Ar 4.43273 2.13511 2.24299
38 Ar 4.31611 2.14816 6.70249
39 Ar 4.56573 2.52387 11.1041
40 Ar 4.56731 6.73983 2.38096
41 Ar 4.52306 6.67514 6.46291
42 Ar 4.48205 6.49062 11.0486
43 Ar 4.63535 11.0857 2.09358
44 Ar 4.42333 11.0678 6.90551
45 Ar 4.42425 11.1411 11.0635
46 Ar 8.84715 2.29204 2.34215
47 Ar 8.9917 2.37838 6.80783
48 Ar 8.83432 2.20892 11.0663
49 Ar 8.92911 6.4602 2.17659
50 Ar 8.87804 6.56942 6.54751
51 Ar 8.78666 6.7403 11.0049
52 Ar 8.91066 11.1517 2.3044
53 Ar 8.89943 11.007 6.68582
54 Ar 8.92197 11.1556 11.2145
55 Ar 2.28028 -0.00774004 2.2705
56 Ar 2.16075 -0.0277338 6.58535
57 Ar 2.12221 0.078786 11.013
58 Ar 2.22704 4.4146 2.29103
59 Ar 2.01637 4.43693 6.76112
60 Ar 2.40891 4.53632 10.9971
61 Ar 2.46023 8.98785 2.24171
62 Ar 2.02913 8.89621 6.7092
63 Ar 2.37486 8.88623 11.1353
64 Ar 6.79576 -0.0290451 2.22328
65 Ar 6.58153 0.0188397 6.6437
66 Ar 6.62682 0.0868819 11.0105
67 Ar 6.56495 4.50256 2.33329
68 Ar 6.74623 4.28547 6.44065
69 Ar 6.51628 4.4145 11.1233
70 Ar 6.72794 9.03648 2.09014
71 Ar 6.7204 8.89554 6.64561
72 Ar 6.56712 8.6991 11.1237
73 Ar 11.005 0.161424 2.27444
74 Ar 11.1449 0.141884 6.58829
75 Ar 11.1035 -0.039892 11.2254
76 Ar 11.2879 4.27499 2.00475
77 Ar 11.2284 4.48179 6.73204
78 Ar 11.1311 4.45302 11.0582
79 Ar 11.1279 8.87564 2.1871
80 Ar 11.0306 8.72573 6.566
81 Ar 11.1961 8.90096 11.2806
82 Ar 2.37854 2.33806 0.054539
83 Ar 2.19976 2.22651 4.42859
84 Ar 2.27724 2.19392 8.93158
85 Ar 2.21917 6.75037 0.166921
86 Ar 2.2159 6.77521 4.65845
87 Ar 2.23098 6.74017 8.78321
88 Ar 2.10027 11.144 -0.047947
89 Ar 2.18435 11.0026 4.43343
90 Ar 2.11096 11.1884 9.16147
91 Ar 6.51305 2.37129 0.14364
92 Ar 6.55962 2.12474 4.39114
93 Ar 6.67172 2.29976 8.71049
94 Ar 6.61878 6.68896 0.0198002
95 Ar 6.71278 6.86728 4.43234
96 Ar 6.69192 6.56168 8.75767
97 Ar 6.74179 11.2805 -0.218695
98 Ar 6.86441 11.1397 4.35525
99 Ar 6.67415 10.819 9.01041
100 Ar 11.0787 2.26447 -0.134183
101 Ar 11.1546 2.37235 4.62795
102 Ar 11.28 2.09221 9.09755
103 Ar 10.9844 6.62811 0.101062
104 Ar 11.1662 6.6378 4.31998
105 Ar 11.1788 6.62476 8.90374
106 Ar 10.9223 11.2168 0.190523
107 Ar 11.2365 11.127 4.51344
108 Ar 11.2325 11.1387 8.9988
ITEM: TIMESTEP
40040
ITEM: NUMBER OF ATOMS
108
ITEM: BOX BOUNDS pp pp pp
0.0000000000000000e+00 1.3349999400000000e+01
0.0000000000000000e+00 1.3349999400000000e+01
0.0000000000000000e+00 1.3349999400000000e+01
ITEM: ATOMS id element xu yu zu
1 Ar 0.0818631 0.154191 -0.0469484
2 Ar -0.0330287 0.0949726 4.42542
3 Ar 0.138638 -0.00963606 8.86982
4 Ar 0.032675 4.59477 -0.0248085
5 Ar 0.0639537 4.40151 4.38173
6 Ar -0.134512 4.41883 9.02054
7 Ar -0.0349673 8.8375 0.175814
8 Ar 0.0559482 8.8876 4.30617
9 Ar -0.0687104 8.94614 8.89314
10 Ar 4.36774 0.0108046 -0.140283
11 Ar 4.51909 -0.102081 4.53133
12 Ar 4.54522 -0.0486433 8.73435
13 Ar 4.43078 4.54262 0.119566
14 Ar 4.28208 4.41711 4.54591
15 Ar 4.41592 4.57467 8.64128
16 Ar 4.36885 8.9378 -0.00270547
17 Ar 4.56597 9.0396 4.58734
18 Ar 4.43807 8.60901 8.89794
19 Ar 8.77786 0.0869855 0.00406739
20 Ar 8.8735 -0.0832675 4.60282
21 Ar 8.83543 -0.175049 8.80581
22 Ar 8.73947 4.44848 -0.0597008
23 Ar 9.06541 4.47028 4.36526
24 Ar 8.88861 4.47546 8.87142
25 Ar 8.87869 8.89753 -0.0826981
26 Ar 8.76964 8.99362 4.31139
27 Ar 9.01766 8.93448 9.11809
28 Ar -0.0278504 2.07861 2.13911
29 Ar 0.0762959 2.16793 6.61727
30 Ar 0.0824134 2.06943 11.1675
31 Ar 0.146261 6.59194 2.34117
32 Ar -0.0444838 6.69713 6.84251
33 Ar -0.0352694 6.75821 11.135
34 Ar -0.0761202 11.1573 2.19123
35 Ar -0.0750222 11.0994 6.64582
36 Ar -0.00158162 11.1057 11.2984
37 Ar 4.42056 2.15788 2.25739
38 Ar 4.2898 2.1455 6.69079
39 Ar 4.57127 2.50044 11.101
40 Ar 4.55417 6.75131 2.37455
41 Ar 4.52413 6.68572 6.46078
42 Ar 4.47787 6.4948 11.0653
43 Ar 4.6442 11.0805 2.1073
44 Ar 4.42541 11.0727 6.9109
45 Ar 4.42142 11.146 11.049
46 Ar 8.85816 2.27855 2.34996
47 Ar 8.98303 2.37534 6.78417
48 Ar 8.87254 2.2131 11.0597
49 Ar 8.92862 6.48822 2.18422
50 Ar 8.91323 6.58714 6.55383
51 Ar 8.76976 6.73203 11.0312
52 Ar 8.92187 11.1608 2.3074
53 Ar 8.91778 10.9879 6.67264
54 Ar 8.93701 11.1545 11.1991
55 Ar 2.2743 -0.00506707 2.29526
56 Ar 2.16658 -0.0238763 6.59035
57 Ar 2.14351 0.0773744 11.0115
58 Ar 2.23935 4.40144 2.28235
59 Ar 2.03158 4.43732 6.7518
60 Ar 2.41083 4.49515 11.0043
61 Ar 2.48068 8.98686 2.24397
62 Ar 2.0295 8.91703 6.685
63 Ar 2.35993 8.87838 11.1592
64 Ar 6.81414 -0.0408695 2.22806
65 Ar 6.58625 0.0136523 6.6461
66 Ar 6.62295 0.091622 11.018
67 Ar 6.5545 4.49964 2.317
68 Ar 6.74092 4.30565 6.43121
69 Ar 6.50706 4.42497 11.1048
70 Ar 6.71561 9.05631 2.08796
71 Ar 6.71686 8.89327 6.64804
72 Ar 6.56009 8.67891 11.1186
73 Ar 11.0095 0.157607 2.27513
74 Ar 11.1678 0.141484 6.57837
75 Ar 11.0949 -0.0595814 11.2272
76 Ar 11.2939 4.26656 2.00756
77 Ar 11.2279 4.48628 6.72789
78 Ar 11.1153 4.44506 11.0491
79 Ar 11.1523 8.87927 2.18748
80 Ar 11.0172 8.72574 6.5554
81 Ar 11.1956 8.8841 11.2926
82 Ar 2.39009 2.35737 0.044523
83 Ar 2.21269 2.23797 4.4224
84 Ar 2.28012 2.18174 8.93472
85 Ar 2.21276 6.72934 0.146665
86 Ar 2.21142 6.78109 4.65902
87 Ar 2.2113 6.74791 8.79379
88 Ar 2.10639 11.1468 -0.0542915
89 Ar 2.1638 10.9972 4.44152
90 Ar 2.09818 11.1725 9.14626
91 Ar 6.50477 2.36978 0.160011
92 Ar 6.58778 2.11045 4.40505
93 Ar 6.67339 2.32917 8.71216
94 Ar 6.62943 6.69235 0.0177729
95 Ar 6.71502 6.88533 4.43388
96 Ar 6.69698 6.56429 8.76454
97 Ar 6.72344 11.2981 -0.235138
98 Ar 6.87665 11.1453 4.34836
99 Ar 6.68624 10.8196 9.02944
100 Ar 11.0682 2.26629 -0.12891
101 Ar 11.1411 2.36656 4.62937
102 Ar 11.2703 2.08818 9.11548
103 Ar 10.9781 6.60591 0.0993724
104 Ar 11.1614 6.63727 4.30058
105 Ar 11.1829 6.63893 8.92663
106 Ar 10.9414 11.2291 0.19108
107 Ar 11.2341 11.1337 4.53963
108 Ar 11.2056 11.1097 8.99241
ITEM: TIMESTEP
40050
ITEM: NUMBER OF ATOMS
108
ITEM: BOX BOUNDS pp pp pp
0.0000000000000000e+00 1.3349999400000000e+01
0.0000000000000000e+00 1.3349999400000000e+01
0.0000000000000000e+00 1.3349999400000000e+01
ITEM: ATOMS id element xu yu zu
1 Ar 0.0894583 0.153369 -0.0696013
2 Ar -0.0345737 0.0970715 4.40611
3 Ar 0.122107 -0.00715819 8.86527
4 Ar 0.0386324 4.59134 -0.0403361
5 Ar 0.0743874 4.39169 4.3847
6 Ar -0.117771 4.42027 9.03994
7 Ar -0.0306266 8.84391 0.163648
8 Ar 0.040291 8.8674 4.31563
9 Ar -0.0763137 8.94719 8.90036
10 Ar 4.35852 0.0223253 -0.144471
11 Ar 4.52117 -0.0874823 4.52084
12 Ar 4.52985 -0.0361426 8.74059
13 Ar 4.40285 4.54864 0.111055
14 Ar 4.25497 4.41893 4.56209
15 Ar 4.41241 4.57054 8.6449
16 Ar 4.38538 8.94885 0.000815461
17 Ar 4.56829 9.03814 4.57244
18 Ar 4.44851 8.60486 8.89633
19 Ar 8.79232 0.0926902 0.00221802
20 Ar 8.8705 -0.0977021 4.60508
21 Ar 8.84457 -0.168191 8.80985
22 Ar 8.74454 4.4399 -0.0714956
23 Ar 9.06007 4.45579 4.34883
24 Ar 8.8722 4.48119 8.87874
25 Ar 8.87859 8.90657 -0.0772127
26 Ar 8.76545 8.99988 4.29253
27 Ar 9.00919 8.93692 9.13482
28 Ar -0.043955 2.08164 2.17029
29 Ar 0.0693429 2.17902 6.61866
30 Ar 0.0927979 2.06816 11.1737
31 Ar 0.155194 6.59313 2.35648
32 Ar -0.039786 6.69822 6.84057
33 Ar -0.0443868 6.74936 11.1273
34 Ar -0.0793635 11.1524 2.20771
35 Ar -0.0800519 11.0987 6.62416
36 Ar 0.00611864 11.0907 11.2969
37 Ar 4.40884 2.18023 2.27287
38 Ar 4.26493 2.14451 6.67795
39 Ar 4.57363 2.47073 11.0969
40 Ar 4.53907 6.76279 2.36776
41 Ar 4.52495 6.69627 6.46132
42 Ar 4.47272 6.50191 11.0832
43 Ar 4.65068 11.0788 2.12198
44 Ar 4.42669 11.076 6.9141
45 Ar 4.41905 11.1506 11.0349
46 Ar 8.86933 2.26523 2.35621
47 Ar 8.97479 2.36926 6.75941
48 Ar 8.90929 2.2174 11.0529
49 Ar 8.92665 6.51877 2.19251
50 Ar 8.94816 6.60561 6.56135
51 Ar 8.75513 6.72077 11.0593
52 Ar 8.93457 11.1702 2.30811
53 Ar 8.93674 10.9697 6.66078
54 Ar 8.95206 11.1534 11.1824
55 Ar 2.26855 -0.00408792 2.31908
56 Ar 2.17325 -0.0219978 6.5958
57 Ar 2.16924 0.0751847 11.013
58 Ar 2.25191 4.38942 2.27325
59 Ar 2.04784 4.43794 6.74216
60 Ar 2.40781 4.45398 11.0126
61 Ar 2.49781 8.98507 2.24703
62 Ar 2.03278 8.93956 6.66213
63 Ar 2.3425 8.86926 11.1827
64 Ar 6.82974 -0.0516536 2.23228
65 Ar 6.59389 0.00723158 6.64908
66 Ar 6.61915 0.0971308 11.0249
67 Ar 6.54529 4.49636 2.30242
68 Ar 6.73432 4.32842 6.42205
69 Ar 6.50381 4.43754 11.0857
70 Ar 6.70373 9.07341 2.08518
71 Ar 6.71421 8.89134 6.65259
72 Ar 6.55292 8.66152 11.1142
73 Ar 11.0145 0.152811 2.27604
74 Ar 11.1898 0.138691 6.57185
75 Ar 11.0867 -0.0795088 11.2283
76 Ar 11.2975 4.25976 2.01379
77 Ar 11.2271 4.49063 6.72373
78 Ar 11.0983 4.43792 11.0429
79 Ar 11.1746 8.88276 2.1891
80 Ar 11.0049 8.72755 6.54566
81 Ar 11.1946 8.86781 11.3041
82 Ar 2.39918 2.37544 0.0328545
83 Ar 2.22564 2.24808 4.4163
84 Ar 2.28282 2.1711 8.93725
85 Ar 2.20765 6.7078 0.124577
86 Ar 2.2068 6.78553 4.6566
87 Ar 2.19058 6.754 8.80612
88 Ar 2.11488 11.15 -0.0588115
89 Ar 2.14474 10.9947 4.44976
90 Ar 2.08723 11.1541 9.12687
91 Ar 6.49877 2.36564 0.17448
92 Ar 6.61689 2.09741 4.41951
93 Ar 6.67434 2.35744 8.71591
94 Ar 6.64012 6.69558 0.0165474
95 Ar 6.71807 6.8998 4.43415
96 Ar 6.70263 6.56758 8.77083
97 Ar 6.70354 11.3129 -0.249382
98 Ar 6.88332 11.1515 4.34466
99 Ar 6.6982 10.8233 9.04737
100 Ar 11.0576 2.26734 -0.123392
101 Ar 11.1276 2.35945 4.62714
102 Ar 11.2583 2.08425 9.12997
103 Ar 10.9739 6.58411 0.0953077
104 Ar 11.1571 6.63669 4.28218
105 Ar 11.1843 6.6548 8.95002
106 Ar 10.9632 11.2411 0.18954
107 Ar 11.2296 11.1401 4.56377
108 Ar 11.1781 11.0819 8.98474
ITEM: TIMESTEP
40060
ITEM: NUMBER OF ATOMS
108
ITEM: BOX BOUNDS pp pp pp
0.0000000000000000e+00 1.3349999400000000e+01
0.0000000000000000e+00 1.3349999400000000e+01
0.0000000000000000e+00 1.3349999400000000e+01
ITEM: ATOMS id element xu yu zu
1 Ar 0.0962414 0.149511 -0.0894638
2 Ar -0.0355459 0.0973018 4.38669
3 Ar 0.102329 -0.00533791 8.86019
4 Ar 0.0455831 4.58566 -0.0574589
5 Ar 0.0834415 4.38261 4.38883
6 Ar -0.0975774 4.42085 9.0584
7 Ar -0.0249655 8.85018 0.150543
8 Ar 0.0231396 8.8473 4.32619
9 Ar -0.0835197 8.94823 8.90856
10 Ar 4.34996 0.0338829 -0.147226
11 Ar 4.52146 -0.0746232 4.5088
12 Ar 4.51328 -0.0225819 8.75079
13 Ar 4.37554 4.55577 0.102496
14 Ar 4.23031 4.42104 4.57701
15 Ar 4.40947 4.56511 8.64881
16 Ar 4.4041 8.95919 0.00274692
17 Ar 4.56917 9.03796 4.55627
18 Ar 4.45864 8.60409 8.89365
19 Ar 8.80758 0.0998021 -8.81705e-05
20 Ar 8.86957 -0.108984 4.60704
21 Ar 8.85415 -0.159673 8.81394
22 Ar 8.75041 4.43046 -0.0831588
23 Ar 9.05266 4.44167 4.33342
24 Ar 8.85693 4.48697 8.88659
25 Ar 8.87799 8.91568 -0.0703421
26 Ar 8.76597 9.00293 4.27474
27 Ar 9.00072 8.93794 9.14811
28 Ar -0.0582473 2.08693 2.20123
29 Ar 0.0618968 2.19133 6.62235
30 Ar 0.102342 2.07206 11.1795
31 Ar 0.163096 6.59538 2.36988
32 Ar -0.035755 6.6989 6.8354
33 Ar -0.0514321 6.73981 11.1204
34 Ar -0.0814549 11.1488 2.22406
35 Ar -0.0843731 11.0985 6.60433
36 Ar 0.0114997 11.0756 11.2945
37 Ar 4.39801 2.20176 2.28924
38 Ar 4.24224 2.14519 6.6643
39 Ar 4.57338 2.43548 11.0919
40 Ar 4.52247 6.77381 2.36067
41 Ar 4.52539 6.70672 6.46456
42 Ar 4.46613 6.51161 11.102
43 Ar 4.65448 11.0811 2.13744
44 Ar 4.42733 11.0776 6.91512
45 Ar 4.41694 11.1547 11.0213
46 Ar 8.88048 2.25213 2.36066
47 Ar 8.96692 2.36042 6.73411
48 Ar 8.94363 2.22157 11.0458
49 Ar 8.92311 6.55134 2.20114
50 Ar 8.98209 6.62432 6.56984
51 Ar 8.74305 6.70678 11.0886
52 Ar 8.94882 11.1796 2.30631
53 Ar 8.9558 10.9528 6.65063
54 Ar 8.96668 11.1522 11.1651
55 Ar 2.26311 -0.00475516 2.34144
56 Ar 2.1803 -0.0221466 6.60149
57 Ar 2.1987 0.072006 11.0172
58 Ar 2.26418 4.37893 2.26389
59 Ar 2.06474 4.43891 6.73264
60 Ar 2.40026 4.41355 11.0217
61 Ar 2.51109 8.98258 2.25065
62 Ar 2.0389 8.96318 6.64122
63 Ar 2.323 8.85909 11.2053
64 Ar 6.84229 -0.0611056 2.23571
65 Ar 6.60406 -0.000350288 6.653
66 Ar 6.61577 0.103601 11.031
67 Ar 6.53735 4.49301 2.28985
68 Ar 6.72662 4.3536 6.41315
69 Ar 6.506 4.45155 11.0666
70 Ar 6.6927 9.08756 2.08172
71 Ar 6.71255 8.88998 6.65919
72 Ar 6.54573 8.64733 11.1107
73 Ar 11.0199 0.146983 2.27717
74 Ar 11.2105 0.13368 6.56888
75 Ar 11.0793 -0.0993505 11.2284
76 Ar 11.2987 4.25485 2.02327
77 Ar 11.2261 4.49483 6.71987
78 Ar 11.0805 4.43175 11.0396
79 Ar 11.1945 8.8861 2.19169
80 Ar 10.9941 8.73101 6.53691
81 Ar 11.1929 8.85228 11.3151
82 Ar 2.40547 2.3916 0.0199216
83 Ar 2.23801 2.25642 4.41053
84 Ar 2.28512 2.16209 8.93898
85 Ar 2.20374 6.68632 0.101073
86 Ar 2.20222 6.78849 4.65131
87 Ar 2.1693 6.75854 8.82006
88 Ar 2.12567 11.1536 -0.0612175
89 Ar 2.12744 10.9953 4.45784
90 Ar 2.0781 11.1336 9.1037
91 Ar 6.49499 2.35902 0.186795
92 Ar 6.64648 2.08597 4.43429
93 Ar 6.67449 2.38407 8.72137
94 Ar 6.65057 6.69843 0.0164338
95 Ar 6.72187 6.91041 4.43307
96 Ar 6.70876 6.57154 8.77632
97 Ar 6.68264 11.3246 -0.26143
98 Ar 6.88419 11.1579 4.34436
99 Ar 6.70983 10.83 9.06388
100 Ar 11.0476 2.26748 -0.117661
101 Ar 11.1144 2.35109 4.62138
102 Ar 11.2444 2.08053 9.14066
103 Ar 10.9718 6.56301 0.0891305
104 Ar 11.1534 6.63585 4.26505
105 Ar 11.1831 6.67198 8.97342
106 Ar 10.9874 11.2525 0.185962
107 Ar 11.223 11.1459 4.58519
108 Ar 11.1506 11.0555 8.97576
ITEM: TIMESTEP
40070
ITEM: NUMBER OF ATOMS
108
ITEM: BOX BOUNDS pp pp pp
0.0000000000000000e+00 1.3349999400000000e+01
0.0000000000000000e+00 1.3349999400000000e+01
0.0000000000000000e+00 1.3349999400000000e+01
ITEM: ATOMS id element xu yu zu
1 Ar 0.102252 0.142864 -0.10592
2 Ar -0.035863 0.0957326 4.36788
3 Ar 0.0798374 -0.00441765 8.85496
4 Ar 0.0531154 4.57769 -0.0756986
5 Ar 0.0909826 4.37446 4.39404
6 Ar -0.0745248 4.42054 9.07553
7 Ar -0.017944 8.8561 0.136869
8 Ar 0.00473351 8.82772 4.33787
9 Ar -0.0902305 8.94928 8.91739
10 Ar 4.34216 0.0453207 -0.148137
11 Ar 4.52017 -0.0636136 4.4955
12 Ar 4.49601 -0.00816699 8.76446
13 Ar 4.34989 4.56388 0.0938172
14 Ar 4.20874 4.42377 4.59034
15 Ar 4.40697 4.55872 8.65311
16 Ar 4.42457 8.96875 0.00297656
17 Ar 4.56872 9.03915 4.53925
18 Ar 4.468 8.60656 8.89009
19 Ar 8.82326 0.108002 -0.00288416
20 Ar 8.871 -0.117047 4.60883
21 Ar 8.86403 -0.149565 8.81786
22 Ar 8.75679 4.42022 -0.0942149
23 Ar 9.04317 4.42854 4.31921
24 Ar 8.84319 4.49274 8.89448
25 Ar 8.87698 8.92504 -0.0621536
26 Ar 8.77111 9.00289 4.25815
27 Ar 8.99218 8.93699 9.15799
28 Ar -0.0703993 2.09428 2.23103
29 Ar 0.0541932 2.20467 6.62818
30 Ar 0.110841 2.08079 11.1847
31 Ar 0.170105 6.59842 2.38079
32 Ar -0.032562 6.69921 6.82723
33 Ar -0.0563277 6.72961 11.1146
34 Ar -0.082243 11.1465 2.24006
35 Ar -0.0878837 11.0988 6.58693
36 Ar 0.0145681 11.0609 11.291
37 Ar 4.3885 2.22211 2.30622
38 Ar 4.22241 2.14744 6.65018
39 Ar 4.57115 2.39572 11.086
40 Ar 4.50486 6.78394 2.35334
41 Ar 4.5253 6.71705 6.47043
42 Ar 4.45775 6.52345 11.1213
43 Ar 4.65533 11.0877 2.15347
44 Ar 4.42757 11.0777 6.91402
45 Ar 4.41485 11.1581 11.008
46 Ar 8.8914 2.23933 2.3631
47 Ar 8.95933 2.3492 6.70885
48 Ar 8.9747 2.22536 11.0388
49 Ar 8.91799 6.58539 2.20976
50 Ar 9.01433 6.64272 6.57909
51 Ar 8.73378 6.69045 11.1187
52 Ar 8.96457 11.1889 2.3019
53 Ar 8.97438 10.9374 6.64246
54 Ar 8.98042 11.1509 11.1481
55 Ar 2.25808 -0.00697613 2.36181
56 Ar 2.18731 -0.0243184 6.60724
57 Ar 2.23102 0.067694 11.0234
58 Ar 2.27561 4.37035 2.25446
59 Ar 2.08182 4.44035 6.72366
60 Ar 2.38876 4.37458 11.0311
61 Ar 2.52011 8.97954 2.2546
62 Ar 2.04772 8.98719 6.6228
63 Ar 2.30192 8.84814 11.2267
64 Ar 6.85163 -0.0689907 2.23817
65 Ar 6.6163 -0.00901556 6.65815
66 Ar 6.61318 0.111129 11.0361
67 Ar 6.53069 4.48987 2.27948
68 Ar 6.71804 4.38093 6.40455
69 Ar 6.51281 4.46627 11.0479
70 Ar 6.68288 9.09862 2.07758
71 Ar 6.71199 8.88933 6.6677
72 Ar 6.53869 8.63662 11.1082
73 Ar 11.0256 0.140104 2.27846
74 Ar 11.2296 0.12668 6.56952
75 Ar 11.073 -0.118737 11.2275
76 Ar 11.2978 4.25209 2.03572
77 Ar 11.2248 4.49881 6.71655
78 Ar 11.0622 4.42674 11.0389
79 Ar 11.2118 8.88926 2.19494
80 Ar 10.9855 8.73603 6.52926
81 Ar 11.1904 8.83771 11.3256
82 Ar 2.4087 2.40519 0.00617461
83 Ar 2.24916 2.26264 4.40532
84 Ar 2.2868 2.15479 8.93974
85 Ar 2.20086 6.66542 0.0765963
86 Ar 2.19789 6.79001 4.6434
87 Ar 2.14802 6.76165 8.83545
88 Ar 2.13864 11.1575 -0.061317
89 Ar 2.11212 10.999 4.4654
90 Ar 2.07077 11.1115 9.07721
91 Ar 6.49332 2.35013 0.196756
92 Ar 6.67608 2.07637 4.44918
93 Ar 6.67382 2.40858 8.72813
94 Ar 6.66054 6.70071 0.0177158
95 Ar 6.72631 6.917 4.43063
96 Ar 6.71527 6.5762 8.78083
97 Ar 6.6613 11.3334 -0.271291
98 Ar 6.8793 11.1642 4.34754
99 Ar 6.72094 10.8397 9.07868
100 Ar 11.0384 2.26665 -0.111705
101 Ar 11.1019 2.34159 4.61234
102 Ar 11.2293 2.07715 9.14722
103 Ar 10.9718 6.54286 0.0811762
104 Ar 11.1501 6.63451 4.24944
105 Ar 11.1791 6.69002 8.99634
106 Ar 11.0137 11.2628 0.180443
107 Ar 11.2144 11.1511 4.60322
108 Ar 11.1239 11.0309 8.96546
ITEM: TIMESTEP
40080
ITEM: NUMBER OF ATOMS
108
ITEM: BOX BOUNDS pp pp pp
0.0000000000000000e+00 1.3349999400000000e+01
0.0000000000000000e+00 1.3349999400000000e+01
0.0000000000000000e+00 1.3349999400000000e+01
ITEM: ATOMS id element xu yu zu
1 Ar 0.107532 0.133722 -0.118567
2 Ar -0.0355065 0.0924424 4.3504
3 Ar 0.0552475 -0.00460366 8.84998
4 Ar 0.0607843 4.56739 -0.0945314
5 Ar 0.0969204 4.36741 4.40025
6 Ar -0.0493075 4.41933 9.09101
7 Ar -0.0095839 8.86147 0.12303
8 Ar -0.014635 8.80907 4.3507
9 Ar -0.0963853 8.95029 8.92646
10 Ar 4.33525 0.0564793 -0.146792
11 Ar 4.51754 -0.0544805 4.48129
12 Ar 4.47855 0.00683624 8.78097
13 Ar 4.32689 4.57274 0.0849522
14 Ar 4.19087 4.42743 4.60178
15 Ar 4.4048 4.55167 8.65792
16 Ar 4.44628 8.97751 0.00147681
17 Ar 4.5671 9.04169 4.52183
18 Ar 4.47614 8.61213 8.88586
19 Ar 8.83896 0.116922 -0.00618907
20 Ar 8.87497 -0.121951 4.61049
21 Ar 8.87408 -0.13795 8.82141
22 Ar 8.76335 4.40921 -0.104184
23 Ar 9.03163 4.41692 4.30634
24 Ar 8.83139 4.49843 8.90192
25 Ar 8.87565 8.93479 -0.0527668
26 Ar 8.78063 9.00004 4.24289
27 Ar 8.98347 8.93358 9.16455
28 Ar -0.0801446 2.10351 2.2589
29 Ar 0.0464362 2.21883 6.63597
30 Ar 0.118109 2.09383 11.1889
31 Ar 0.176337 6.60199 2.38869
32 Ar -0.0303263 6.69921 6.81637
33 Ar -0.0590741 6.71882 11.1101
34 Ar -0.0816179 11.1454 2.25553
35 Ar -0.0905095 11.0996 6.57243
36 Ar 0.0154489 11.0468 11.2861
37 Ar 4.38075 2.24092 2.32347