ITEM: TIMESTEP
60000
ITEM: NUMBER OF ATOMS
108
ITEM: BOX BOUNDS pp pp pp
0.0000000000000000e+00 1.3349999400000000e+01
0.0000000000000000e+00 1.3349999400000000e+01
0.0000000000000000e+00 1.3349999400000000e+01
ITEM: ATOMS id element xu yu zu
1 Ar -0.0327415 0.0516239 0.069482
2 Ar -0.110046 -0.00171836 4.69734
3 Ar 0.0263662 0.0682951 8.96626
4 Ar 0.0457717 4.52472 -0.0408344
5 Ar -0.0306937 4.3794 4.55544
6 Ar 0.133467 4.36079 8.98088
7 Ar -0.181822 8.97333 -0.12479
8 Ar 0.226107 8.90422 4.39936
9 Ar -0.0395367 8.94553 8.98136
10 Ar 4.43851 -0.145905 0.125825
11 Ar 4.39241 0.0477796 4.36101
12 Ar 4.3305 0.0380334 8.96898
13 Ar 4.5074 4.52259 0.163408
14 Ar 4.51469 4.32927 4.42935
15 Ar 4.49299 4.59292 8.7807
16 Ar 4.37162 8.90219 -0.0770745
17 Ar 4.48195 8.92629 4.36391
18 Ar 4.47986 8.84546 8.78285
19 Ar 8.86458 0.0801373 0.0416079
20 Ar 8.96964 -0.0962911 4.38894
21 Ar 8.82257 -0.0193683 8.96658
22 Ar 8.85489 4.48041 0.0894635
23 Ar 9.08709 4.66801 4.25433
24 Ar 8.94732 4.3044 8.83001
25 Ar 8.99717 8.91269 0.00282818
26 Ar 8.93895 8.83538 4.34535
27 Ar 8.75076 8.92206 8.88521
28 Ar -0.0369544 2.1843 2.17903
29 Ar 0.000544906 2.21514 6.6582
30 Ar 0.0841587 2.25341 11.2909
31 Ar -0.0274293 6.62454 2.0756
32 Ar -0.0639025 6.93572 6.89745
33 Ar -0.0844343 6.63764 11.0746
34 Ar -0.0567412 11.2398 2.35508
35 Ar -0.0239654 11.3651 6.76726
36 Ar -0.00644136 11.1819 11.2158
37 Ar 4.3907 2.0062 2.25196
38 Ar 4.44242 2.33249 6.73172
39 Ar 4.47111 2.33874 11.1114
40 Ar 4.39145 6.56294 2.30662
41 Ar 4.60356 6.69587 6.6227
42 Ar 4.5454 6.56151 11.1739
43 Ar 4.43132 11.1815 2.25466
44 Ar 4.53151 10.9623 6.61968
45 Ar 4.37283 11.2717 11.1305
46 Ar 8.96961 2.17789 2.1383
47 Ar 8.87086 2.25971 6.67865
48 Ar 8.71131 2.15837 11.0976
49 Ar 9.00437 6.69658 2.1433
50 Ar 8.9672 6.80869 6.61988
51 Ar 8.89127 6.69339 11.1266
52 Ar 9.04729 11.1387 2.20938
53 Ar 8.83221 11.0974 6.61775
54 Ar 8.67085 11.1802 11.1504
55 Ar 2.07901 -0.0998638 2.13669
56 Ar 2.28994 -0.101405 6.6493
57 Ar 2.07188 -0.0871 11.2375
58 Ar 2.24632 4.49655 2.30441
59 Ar 2.28357 4.36782 6.59657
60 Ar 2.29285 4.38483 11.0416
61 Ar 2.23778 8.83149 2.23275
62 Ar 2.22212 9.12325 6.75528
63 Ar 2.24946 8.8912 10.943
64 Ar 6.79829 -0.0357687 2.10848
65 Ar 6.44754 -0.0774677 6.65052
66 Ar 6.53897 0.136393 11.1345
67 Ar 6.73584 4.26987 2.32855
68 Ar 6.77751 4.1974 6.53758
69 Ar 6.83077 4.50609 11.0496
70 Ar 6.58179 8.99212 2.1864
71 Ar 6.73235 8.98221 6.63689
72 Ar 6.52864 8.50421 11.0534
73 Ar 11.2234 -0.0564473 2.32037
74 Ar 10.8662 0.0759959 6.81211
75 Ar 11.1046 -0.02616 11.222
76 Ar 11.2187 4.44949 2.29233
77 Ar 11.1575 4.43594 6.71867
78 Ar 10.9804 4.43949 11.069
79 Ar 11.1338 8.77656 2.24243
80 Ar 11.3025 8.97117 6.74184
81 Ar 11.2429 8.98136 11.072
82 Ar 2.37459 2.25451 0.154594
83 Ar 2.2624 2.18262 4.44642
84 Ar 2.22815 2.16105 8.67917
85 Ar 2.22075 6.77558 -0.176694
86 Ar 2.20884 6.54501 4.46383
87 Ar 2.13605 6.70393 8.88148
88 Ar 2.01385 11.1007 0.119743
89 Ar 2.23148 11.1852 4.34215
90 Ar 2.32375 11.1187 8.88652
91 Ar 6.72068 2.28662 0.0270476
92 Ar 6.67661 2.17337 4.33375
93 Ar 6.47442 2.39998 8.82074
94 Ar 6.83357 6.72035 0.17843
95 Ar 6.66353 6.82662 4.52479
96 Ar 6.82219 6.58127 8.71767
97 Ar 6.61946 10.9119 -0.0233606
98 Ar 6.80036 11.322 4.39103
99 Ar 6.71157 11.1717 8.96086
100 Ar 10.9829 2.33983 -0.0509015
101 Ar 11.1703 2.14591 4.39292
102 Ar 11.1057 2.09131 9.08574
103 Ar 11.1068 6.45982 -0.191815
104 Ar 11.2925 6.66181 4.68384
105 Ar 10.9775 6.74606 8.89613
106 Ar 11.1057 11.1244 0.0761324
107 Ar 11.0549 11.1045 4.45442
108 Ar 11.2469 11.2116 8.9147
ITEM: TIMESTEP
60010
ITEM: NUMBER OF ATOMS
108
ITEM: BOX BOUNDS pp pp pp
0.0000000000000000e+00 1.3349999400000000e+01
0.0000000000000000e+00 1.3349999400000000e+01
0.0000000000000000e+00 1.3349999400000000e+01
ITEM: ATOMS id element xu yu zu
1 Ar -0.0263092 0.0385008 0.0817883
2 Ar -0.128305 -0.0182729 4.6991
3 Ar 0.0208447 0.0689623 8.97289
4 Ar 0.0265148 4.54082 -0.0268993
5 Ar -0.0411549 4.4131 4.54014
6 Ar 0.131608 4.36788 8.97419
7 Ar -0.188572 8.96557 -0.125358
8 Ar 0.24013 8.87779 4.42113
9 Ar -0.0628337 8.94199 8.96068
10 Ar 4.43369 -0.142544 0.149227
11 Ar 4.38914 0.0421113 4.36334
12 Ar 4.33236 0.0298417 8.98994
13 Ar 4.51752 4.5328 0.164485
14 Ar 4.51225 4.33205 4.42323
15 Ar 4.49625 4.58433 8.78427
16 Ar 4.35879 8.89086 -0.0626416
17 Ar 4.48825 8.93026 4.36577
18 Ar 4.48796 8.84593 8.77343
19 Ar 8.88595 0.0892427 0.0375841
20 Ar 8.96804 -0.0942769 4.39198
21 Ar 8.82143 -0.00865314 8.9504
22 Ar 8.86268 4.47863 0.096051
23 Ar 9.10359 4.64687 4.26273
24 Ar 8.93703 4.29657 8.82639
25 Ar 8.97665 8.90921 0.00799699
26 Ar 8.95118 8.83488 4.35741
27 Ar 8.73199 8.93038 8.87858
28 Ar -0.035313 2.17623 2.17557
29 Ar -0.0107463 2.23066 6.64816
30 Ar 0.0729596 2.25604 11.2812
31 Ar -0.0240817 6.62437 2.0714
32 Ar -0.082178 6.9319 6.91517
33 Ar -0.0923951 6.63367 11.0751
34 Ar -0.0701518 11.2411 2.36898
35 Ar -0.0174525 11.3479 6.77021
36 Ar -0.00341279 11.1939 11.2053
37 Ar 4.39564 1.99685 2.23851
38 Ar 4.44553 2.34425 6.7133
39 Ar 4.48028 2.35386 11.1023
40 Ar 4.40568 6.56337 2.31002
41 Ar 4.61633 6.69305 6.62849
42 Ar 4.55032 6.54222 11.1832
43 Ar 4.43274 11.1712 2.25724
44 Ar 4.5256 10.9645 6.59682
45 Ar 4.38606 11.2701 11.1321
46 Ar 8.96507 2.19724 2.1405
47 Ar 8.8698 2.2625 6.68834
48 Ar 8.72374 2.14621 11.1001
49 Ar 8.98662 6.67868 2.15276
50 Ar 8.9778 6.79915 6.63898
51 Ar 8.89233 6.68185 11.1315
52 Ar 9.06704 11.1284 2.2158
53 Ar 8.83581 11.0887 6.635
54 Ar 8.69734 11.2018 11.1432
55 Ar 2.07939 -0.106184 2.14533
56 Ar 2.29205 -0.0776037 6.64483
57 Ar 2.0646 -0.0845126 11.2142
58 Ar 2.24017 4.49053 2.31461
59 Ar 2.27679 4.34255 6.58531
60 Ar 2.30681 4.36704 11.0513
61 Ar 2.22995 8.85892 2.24694
62 Ar 2.22653 9.12863 6.76179
63 Ar 2.25038 8.87805 10.9444
64 Ar 6.78629 -0.0392358 2.09651
65 Ar 6.43971 -0.0647796 6.65212
66 Ar 6.54239 0.119711 11.1429
67 Ar 6.74572 4.28256 2.3207
68 Ar 6.78635 4.20184 6.52948
69 Ar 6.83382 4.49385 11.045
70 Ar 6.60711 8.9817 2.17759
71 Ar 6.7046 8.97671 6.64355
72 Ar 6.53743 8.52962 11.0556
73 Ar 11.2215 -0.0338255 2.32091
74 Ar 10.8703 0.0823422 6.80054
75 Ar 11.1091 -0.0302905 11.2295
76 Ar 11.2263 4.46306 2.27556
77 Ar 11.1525 4.44026 6.71624
78 Ar 10.9909 4.45932 11.0704
79 Ar 11.1294 8.76035 2.22113
80 Ar 11.3005 8.9616 6.74827
81 Ar 11.2428 8.99431 11.0485
82 Ar 2.39047 2.24649 0.145387
83 Ar 2.2663 2.17861 4.43545
84 Ar 2.23959 2.15176 8.6811
85 Ar 2.22416 6.77176 -0.18055
86 Ar 2.2014 6.53687 4.47901
87 Ar 2.14689 6.70731 8.88507
88 Ar 2.00648 11.08 0.128114
89 Ar 2.21106 11.1681 4.34595
90 Ar 2.32829 11.1211 8.87307
91 Ar 6.72395 2.27964 0.0266114
92 Ar 6.67244 2.19904 4.34829
93 Ar 6.46618 2.39644 8.83862
94 Ar 6.83257 6.71993 0.168337
95 Ar 6.66142 6.83305 4.51007
96 Ar 6.8017 6.57151 8.71736
97 Ar 6.60826 10.9328 -0.0369302
98 Ar 6.8078 11.3363 4.42178
99 Ar 6.69738 11.1594 8.96586
100 Ar 10.9966 2.33895 -0.0627193
101 Ar 11.1664 2.16274 4.39728
102 Ar 11.1012 2.09619 9.09456
103 Ar 11.1105 6.46272 -0.205789
104 Ar 11.2964 6.67988 4.68043
105 Ar 11.0083 6.75819 8.8805
106 Ar 11.0841 11.1257 0.0691474
107 Ar 11.055 11.1107 4.45023
108 Ar 11.234 11.2036 8.91351
ITEM: TIMESTEP
60020
ITEM: NUMBER OF ATOMS
108
ITEM: BOX BOUNDS pp pp pp
0.0000000000000000e+00 1.3349999400000000e+01
0.0000000000000000e+00 1.3349999400000000e+01
0.0000000000000000e+00 1.3349999400000000e+01
ITEM: ATOMS id element xu yu zu
1 Ar -0.0215282 0.0257072 0.0925863
2 Ar -0.144985 -0.0338055 4.6977
3 Ar 0.0153777 0.0697647 8.97906
4 Ar 0.00875182 4.55406 -0.013399
5 Ar -0.050523 4.44716 4.52394
6 Ar 0.127138 4.37529 8.96601
7 Ar -0.192503 8.95559 -0.123193
8 Ar 0.250574 8.85162 4.44382
9 Ar -0.0836535 8.9406 8.94092
10 Ar 4.42871 -0.137772 0.169177
11 Ar 4.3868 0.034679 4.36745
12 Ar 4.33571 0.0218046 9.00961
13 Ar 4.5277 4.54161 0.163787
14 Ar 4.50963 4.33633 4.41707
15 Ar 4.49778 4.57605 8.78894
16 Ar 4.34628 8.87975 -0.0476735
17 Ar 4.49316 8.93402 4.3685
18 Ar 4.49659 8.84606 8.76647
19 Ar 8.90797 0.0957035 0.0321249
20 Ar 8.96584 -0.0883809 4.39602
21 Ar 8.81906 0.00238217 8.93374
22 Ar 8.87045 4.4761 0.101176
23 Ar 9.11745 4.62322 4.27485
24 Ar 8.92677 4.2909 8.82319
25 Ar 8.95611 8.90575 0.0116426
26 Ar 8.9631 8.83549 4.3702
27 Ar 8.71633 8.9394 8.87338
28 Ar -0.0325853 2.16988 2.17294
29 Ar -0.0229881 2.24562 6.63958
30 Ar 0.0612875 2.25859 11.2706
31 Ar -0.0198492 6.62598 2.06915
32 Ar -0.0964947 6.92239 6.92984
33 Ar -0.0988171 6.62986 11.0748
34 Ar -0.0841767 11.2386 2.38189
35 Ar -0.0110905 11.3274 6.77278
36 Ar -0.000525353 11.205 11.1932
37 Ar 4.40237 1.99094 2.2247
38 Ar 4.4487 2.35261 6.69273
39 Ar 4.48842 2.368 11.0946
40 Ar 4.42132 6.56634 2.31284
41 Ar 4.62571 6.68967 6.63344
42 Ar 4.55279 6.52185 11.1913
43 Ar 4.43452 11.1596 2.25975
44 Ar 4.51908 10.9701 6.57402
45 Ar 4.39976 11.2653 11.1344
46 Ar 8.96104 2.21673 2.14569
47 Ar 8.8696 2.26277 6.69618
48 Ar 8.73812 2.13514 11.1025
49 Ar 8.9689 6.66155 2.16354
50 Ar 8.98767 6.78794 6.65762
51 Ar 8.89385 6.6711 11.1356
52 Ar 9.0837 11.1172 2.22144
53 Ar 8.84095 11.0804 6.65357
54 Ar 8.72636 11.2217 11.1369
55 Ar 2.08116 -0.109966 2.15654
56 Ar 2.29499 -0.0534246 6.64
57 Ar 2.06056 -0.0792889 11.1912
58 Ar 2.2327 4.4829 2.32317
59 Ar 2.2686 4.3207 6.57531
60 Ar 2.32046 4.35048 11.0621
61 Ar 2.22216 8.88563 2.25938
62 Ar 2.22986 9.13024 6.76593
63 Ar 2.25145 8.866 10.9482
64 Ar 6.7733 -0.0429632 2.08588
65 Ar 6.43432 -0.049793 6.65516
66 Ar 6.54592 0.101742 11.1518
67 Ar 6.75465 4.29851 2.31225
68 Ar 6.79481 4.2124 6.52054
69 Ar 6.83489 4.48189 11.0422
70 Ar 6.63358 8.97052 2.17034
71 Ar 6.67741 8.97078 6.64945
72 Ar 6.54816 8.56067 11.0583
73 Ar 11.2178 -0.00967374 2.31949
74 Ar 10.8774 0.0877112 6.78775
75 Ar 11.1133 -0.03448 11.2368
76 Ar 11.234 4.47645 2.25725
77 Ar 11.1477 4.44382 6.71494
78 Ar 11.0026 4.47707 11.0702
79 Ar 11.127 8.74511 2.20038
80 Ar 11.2946 8.95526 6.75288
81 Ar 11.2377 9.00682 11.0255
82 Ar 2.40421 2.23883 0.133581
83 Ar 2.26806 2.17414 4.424
84 Ar 2.25077 2.14344 8.68707
85 Ar 2.22677 6.76672 -0.182739
86 Ar 2.19417 6.53105 4.49593
87 Ar 2.16 6.70962 8.88796
88 Ar 2.00173 11.0577 0.134697
89 Ar 2.19118 11.151 4.35184
90 Ar 2.33115 11.1246 8.86101
91 Ar 6.72467 2.2725 0.0258148
92 Ar 6.67002 2.22145 4.36384
93 Ar 6.4611 2.38904 8.85768
94 Ar 6.82834 6.7186 0.157111
95 Ar 6.66085 6.83623 4.49312
96 Ar 6.78094 6.56142 8.7176
97 Ar 6.59796 10.9557 -0.0512962
98 Ar 6.81266 11.3467 4.45102
99 Ar 6.68044 11.1469 8.97025
100 Ar 11.0125 2.33716 -0.0744042
101 Ar 11.1607 2.18096 4.40299
102 Ar 11.0977 2.10292 9.10186
103 Ar 11.1139 6.46964 -0.216381
104 Ar 11.3004 6.69951 4.67368
105 Ar 11.039 6.7688 8.86619
106 Ar 11.063 11.128 0.0609035
107 Ar 11.0572 11.115 4.44816
108 Ar 11.2178 11.1955 8.91294
ITEM: TIMESTEP
60030
ITEM: NUMBER OF ATOMS
108
ITEM: BOX BOUNDS pp pp pp
0.0000000000000000e+00 1.3349999400000000e+01
0.0000000000000000e+00 1.3349999400000000e+01
0.0000000000000000e+00 1.3349999400000000e+01
ITEM: ATOMS id element xu yu zu
1 Ar -0.0182588 0.0132835 0.101599
2 Ar -0.159857 -0.0479307 4.69343
3 Ar 0.00980813 0.0706875 8.98429
4 Ar -0.00701835 4.56399 -0.000742374
5 Ar -0.0588018 4.48102 4.50709
6 Ar 0.12045 4.38288 8.95654
7 Ar -0.193847 8.94376 -0.118729
8 Ar 0.257145 8.82597 4.46718
9 Ar -0.101172 8.9416 8.92268
10 Ar 4.42336 -0.131964 0.185083
11 Ar 4.38543 0.0256315 4.37304
12 Ar 4.34059 0.0140847 9.02761
13 Ar 4.53775 4.54877 0.161558
14 Ar 4.50685 4.34217 4.41079
15 Ar 4.49739 4.56803 8.7944
16 Ar 4.33449 8.86903 -0.0323233
17 Ar 4.49668 8.93737 4.37184
18 Ar 4.50545 8.84591 8.76223
19 Ar 8.93021 0.0996046 0.0258082
20 Ar 8.96305 -0.0786384 4.4009
21 Ar 8.81535 0.0135202 8.91673
22 Ar 8.87819 4.47283 0.104541
23 Ar 9.12872 4.59752 4.29046
24 Ar 8.91679 4.2876 8.82065
25 Ar 8.93579 8.90237 0.0135692
26 Ar 8.97457 8.83712 4.38374
27 Ar 8.70391 8.9486 8.86972
28 Ar -0.0287532 2.16543 2.17122
29 Ar -0.0359475 2.25978 6.63242
30 Ar 0.0493992 2.26112 11.2595
31 Ar -0.0145396 6.62964 2.06894
32 Ar -0.10627 6.90708 6.94102
33 Ar -0.103346 6.62639 11.0735
34 Ar -0.0988352 11.2323 2.39352
35 Ar -0.00494114 11.3039 6.77501
36 Ar 0.00220383 11.2149 11.1798
37 Ar 4.41093 1.9887 2.21108
38 Ar 4.4521 2.35754 6.67054
39 Ar 4.49564 2.3807 11.0886
40 Ar 4.43779 6.57183 2.31511
41 Ar 4.63147 6.68553 6.63727
42 Ar 4.55334 6.50124 11.1982
43 Ar 4.43676 11.1467 2.26232
44 Ar 4.51192 10.9791 6.55164
45 Ar 4.4133 11.2574 11.1376
46 Ar 8.95758 2.23592 2.15366
47 Ar 8.87022 2.26047 6.70212
48 Ar 8.75418 2.12533 11.1047
49 Ar 8.95145 6.6454 2.17562
50 Ar 8.99644 6.77524 6.67553
51 Ar 8.89565 6.66141 11.1384
52 Ar 9.09689 11.1055 2.22639
53 Ar 8.84748 11.0727 6.67319
54 Ar 8.75743 11.2397 11.1314
55 Ar 2.08419 -0.111453 2.17022
56 Ar 2.2985 -0.0292661 6.63483
57 Ar 2.05991 -0.0715754 11.1689
58 Ar 2.22422 4.47386 2.32982
59 Ar 2.25905 4.30249 6.56676
60 Ar 2.3332 4.33541 11.074
61 Ar 2.21448 8.91094 2.27006
62 Ar 2.23217 9.1278 6.76781
63 Ar 2.25254 8.85535 10.9538
64 Ar 6.75997 -0.0469993 2.07694
65 Ar 6.43134 -0.0326507 6.65984
66 Ar 6.54961 0.0828921 11.1612
67 Ar 6.76245 4.31741 2.30346
68 Ar 6.80274 4.22895 6.51122
69 Ar 6.83423 4.4703 11.0413
70 Ar 6.66086 8.95913 2.16467
71 Ar 6.65147 8.96445 6.65434
72 Ar 6.56029 8.59648 11.0617
73 Ar 11.2123 0.0156523 2.31613
74 Ar 10.8874 0.0920148 6.77407
75 Ar 11.1171 -0.0385874 11.2437
76 Ar 11.2416 4.48949 2.23774
77 Ar 11.143 4.44667 6.71477
78 Ar 11.0152 4.49238 11.0682
79 Ar 11.1265 8.73089 2.18042
80 Ar 11.2845 8.95241 6.75531
81 Ar 11.2275 9.01868 11.0036
82 Ar 2.4155 2.23165 0.119289
83 Ar 2.26755 2.16926 4.41208
84 Ar 2.26145 2.13634 8.69689
85 Ar 2.22844 6.76038 -0.183102
86 Ar 2.18761 6.52761 4.51432
87 Ar 2.17511 6.71074 8.89005
88 Ar 1.99955 11.0346 0.139288
89 Ar 2.17212 11.1345 4.35987
90 Ar 2.33241 11.1293 8.8506
91 Ar 6.72299 2.26531 0.0245993
92 Ar 6.66934 2.24025 4.37981
93 Ar 6.45921 2.37787 8.87718
94 Ar 6.82099 6.71631 0.144682
95 Ar 6.66201 6.83621 4.47439
96 Ar 6.76038 6.55128 8.71872
97 Ar 6.58879 10.98 -0.06613
98 Ar 6.81503 11.3531 4.47818
99 Ar 6.66114 11.1346 8.97401
100 Ar 11.0305 2.33462 -0.0856986
101 Ar 11.1534 2.20039 4.40984
102 Ar 11.0952 2.11138 9.10751
103 Ar 11.1166 6.48086 -0.223305
104 Ar 11.3041 6.7204 4.66368
105 Ar 11.0687 6.77756 8.85384
106 Ar 11.043 11.1309 0.0514636
107 Ar 11.0612 11.1174 4.44836
108 Ar 11.1987 11.1879 8.91274
ITEM: TIMESTEP
60040
ITEM: NUMBER OF ATOMS
108
ITEM: BOX BOUNDS pp pp pp
0.0000000000000000e+00 1.3349999400000000e+01
0.0000000000000000e+00 1.3349999400000000e+01
0.0000000000000000e+00 1.3349999400000000e+01
ITEM: ATOMS id element xu yu zu
1 Ar -0.0162959 0.00123151 0.108637
2 Ar -0.172699 -0.0603124 4.68662
3 Ar 0.00398514 0.0716991 8.98811
4 Ar -0.0203736 4.57034 0.0106815
5 Ar -0.0660437 4.51414 4.48988
6 Ar 0.111963 4.39048 8.94602
7 Ar -0.192863 8.93048 -0.112471
8 Ar 0.25966 8.80112 4.49091
9 Ar -0.114713 8.94509 8.90642
10 Ar 4.41743 -0.125521 0.196483
11 Ar 4.38508 0.0151818 4.37976
12 Ar 4.34699 0.00681375 9.04362
13 Ar 4.54749 4.55404 0.158083
14 Ar 4.5039 4.34957 4.40433
15 Ar 4.49499 4.56015 8.80032
16 Ar 4.32381 8.85882 -0.0167472
17 Ar 4.49884 8.94013 4.37557
18 Ar 4.51416 8.84554 8.7609
19 Ar 8.9522 0.101124 0.0192253
20 Ar 8.95967 -0.0652585 4.40645
21 Ar 8.81028 0.0245471 8.89953
22 Ar 8.88589 4.46884 0.105883
23 Ar 9.13751 4.57032 4.30923
24 Ar 8.90725 4.28675 8.81896
25 Ar 8.91594 8.89915 0.0136309
26 Ar 8.98543 8.83967 4.39799
27 Ar 8.69477 8.9575 8.86767
28 Ar -0.0238341 2.16302 2.17046
29 Ar -0.0493747 2.27291 6.62665
30 Ar 0.0375676 2.26371 11.2481
31 Ar -0.00796959 6.63554 2.07081
32 Ar -0.11111 6.88606 6.94837
33 Ar -0.105682 6.62344 11.0712
34 Ar -0.114088 11.2223 2.40355
35 Ar 0.000923977 11.2783 6.77694
36 Ar 0.00477941 11.2231 11.1654
37 Ar 4.42125 1.9903 2.19824
38 Ar 4.45587 2.35913 6.64731
39 Ar 4.50205 2.39154 11.0846
40 Ar 4.45449 6.57979 2.31684
41 Ar 4.63344 6.68047 6.63973
42 Ar 4.5525 6.4812 11.2036
43 Ar 4.43955 11.1326 2.26501
44 Ar 4.50405 10.9917 6.53006
45 Ar 4.42607 11.2462 11.1417
46 Ar 8.95469 2.25441 2.16408
47 Ar 8.87153 2.25569 6.70614
48 Ar 8.7716 2.11689 11.1069
49 Ar 8.93455 6.63044 2.18892
50 Ar 9.00383 6.76128 6.69249
51 Ar 8.89756 6.65297 11.1396
52 Ar 9.10638 11.0936 2.23079
53 Ar 8.85522 11.0657 6.69353
54 Ar 8.78998 11.2557 11.1265
55 Ar 2.08836 -0.110966 2.18615
56 Ar 2.30225 -0.00549924 6.62938
57 Ar 2.06274 -0.0615612 11.148
58 Ar 2.21503 4.4637 2.3344
59 Ar 2.24824 4.28801 6.5598
60 Ar 2.3444 4.32208 11.0866
61 Ar 2.2069 8.93421 2.27904
62 Ar 2.23363 9.12113 6.76759
63 Ar 2.25355 8.84635 10.961
64 Ar 6.74693 -0.0513822 2.06995
65 Ar 6.43075 -0.0135732 6.66627
66 Ar 6.55355 0.0635775 11.1712
67 Ar 6.76897 4.33884 2.29456
68 Ar 6.81006 4.2512 6.502
69 Ar 6.8321 4.45916 11.0425
70 Ar 6.68854 8.94802 2.16059
71 Ar 6.62739 8.95775 6.65801
72 Ar 6.5733 8.63617 11.0658
73 Ar 11.2049 0.0417479 2.31093
74 Ar 10.9001 0.095175 6.75986
75 Ar 11.121 -0.0424415 11.2499
76 Ar 11.2487 4.502 2.21742
77 Ar 11.1385 4.4489 6.71569
78 Ar 11.0285 4.50501 11.0644
79 Ar 11.1277 8.71775 2.16143
80 Ar 11.2704 8.95303 6.75534
81 Ar 11.2126 9.02966 10.9833
82 Ar 2.4241 2.225 0.102705
83 Ar 2.26471 2.164 4.39969
84 Ar 2.27145 2.13065 8.7103
85 Ar 2.22906 6.75266 -0.181517
86 Ar 2.18216 6.52654 4.53388
87 Ar 2.19197 6.71057 8.89129
88 Ar 1.99983 11.0112 0.141722
89 Ar 2.15408 11.1189 4.37003
90 Ar 2.33219 11.135 8.84201
91 Ar 6.71911 2.25816 0.0229329
92 Ar 6.67035 2.25521 4.39558
93 Ar 6.46049 2.36316 8.89635
94 Ar 6.81075 6.71306 0.131004
95 Ar 6.66503 6.83308 4.4544
96 Ar 6.74048 6.54141 8.72102
97 Ar 6.581 11.0053 -0.081044
98 Ar 6.81512 11.3554 4.50285
99 Ar 6.63994 11.1231 8.97707
100 Ar 11.0502 2.33146 -0.0963396
101 Ar 11.1449 2.22078 4.4176
102 Ar 11.0937 2.12139 9.11135
103 Ar 11.1183 6.49647 -0.226434
104 Ar 11.3072 6.74222 4.6506
105 Ar 11.0965 6.78423 8.84404
106 Ar 11.0244 11.1341 0.0409451
107 Ar 11.0669 11.1177 4.45094
108 Ar 11.1769 11.1812 8.91266
ITEM: TIMESTEP
60050
ITEM: NUMBER OF ATOMS
108
ITEM: BOX BOUNDS pp pp pp
0.0000000000000000e+00 1.3349999400000000e+01
0.0000000000000000e+00 1.3349999400000000e+01
0.0000000000000000e+00 1.3349999400000000e+01
ITEM: ATOMS id element xu yu zu
1 Ar -0.0153832 -0.0104748 0.113604
2 Ar -0.183307 -0.0706719 4.6776
3 Ar -0.00221775 0.0727571 8.99011
4 Ar -0.0309819 4.57298 0.020516
5 Ar -0.072339 4.54599 4.4726
6 Ar 0.102102 4.39794 8.93472
7 Ar -0.18981 8.91617 -0.104967
8 Ar 0.258046 8.7774 4.5147
9 Ar -0.123793 8.95102 8.89244
10 Ar 4.41072 -0.118839 0.203069
11 Ar 4.38576 0.00359846 4.38719
12 Ar 4.3549 9.02202e-05 9.05738
13 Ar 4.55671 4.55724 0.15368
14 Ar 4.50076 4.3585 4.39762
15 Ar 4.49056 4.55223 8.80638
16 Ar 4.31464 8.84922 -0.00110507
17 Ar 4.4997 8.9421 4.3795
18 Ar 4.52234 8.845 8.76258
19 Ar 8.97342 0.100514 0.0129478
20 Ar 8.95568 -0.0486062 4.41249
21 Ar 8.80385 0.0352556 8.88231
22 Ar 8.89358 4.4642 0.104991
23 Ar 9.14394 4.54223 4.33074
24 Ar 8.89829 4.28836 8.81828
25 Ar 8.89682 8.89614 0.0117291
26 Ar 8.99549 8.84301 4.4129
27 Ar 8.68886 8.96562 8.86723
28 Ar -0.0178859 2.16273 2.17067
29 Ar -0.0630067 2.2848 6.6222
30 Ar 0.0260774 2.2664 11.2366
31 Ar 2.3581e-05 6.64374 2.07478
32 Ar -0.110837 6.85973 6.95161
33 Ar -0.105594 6.6212 11.0679
34 Ar -0.129843 11.2089 2.41166
35 Ar 0.00642211 11.251 6.77853
36 Ar 0.00722885 11.2292 11.1504
37 Ar 4.43322 1.99585 2.18668
38 Ar 4.46007 2.35761 6.62364
39 Ar 4.50777 2.40012 11.0829
40 Ar 4.47085 6.59006 2.318
41 Ar 4.63154 6.6744 6.64058
42 Ar 4.55072 6.46253 11.2073
43 Ar 4.44296 11.1174 2.26783
44 Ar 4.49542 11.0077 6.50973
45 Ar 4.43747 11.2319 11.1467
46 Ar 8.95236 2.27186 2.17656
47 Ar 8.87335 2.24867 6.70832
48 Ar 8.79004 2.10996 11.1091
49 Ar 8.91846 6.6168 2.20332
50 Ar 9.00962 6.74631 6.70831
51 Ar 8.89939 6.64593 11.139
52 Ar 9.11204 11.0819 2.2348
53 Ar 8.86388 11.0597 6.71421
54 Ar 8.82333 11.2695 11.1221
55 Ar 2.09346 -0.108882 2.20404
56 Ar 2.30591 0.0175452 6.62376
57 Ar 2.06899 -0.0494817 11.1289
58 Ar 2.20547 4.45274 2.33676
59 Ar 2.23634 4.27722 6.55455
60 Ar 2.35351 4.31071 11.0998
61 Ar 2.19941 8.95488 2.28648
62 Ar 2.23449 9.11019 6.76554
63 Ar 2.25441 8.83915 10.9696
64 Ar 6.73474 -0.0561355 2.06516
65 Ar 6.43251 0.00713373 6.67451
66 Ar 6.55787 0.0442158 11.1816
67 Ar 6.77409 4.36228 2.28583
68 Ar 6.81666 4.27868 6.49327
69 Ar 6.82878 4.44853 11.0458
70 Ar 6.7162 8.93765 2.15807
71 Ar 6.60576 8.95072 6.66029
72 Ar 6.58674 8.6788 11.0706
73 Ar 11.1956 0.0681766 2.30405
74 Ar 10.9155 0.0971264 6.74549
75 Ar 11.1249 -0.0458465 11.2548
76 Ar 11.2549 4.51387 2.19675
77 Ar 11.1343 4.45062 6.71763
78 Ar 11.0421 4.51485 11.0586
79 Ar 11.1302 8.70577 2.14363
80 Ar 11.2524 8.95689 6.75289
81 Ar 11.1933 9.03951 10.9652
82 Ar 2.42982 2.21894 0.0841111
83 Ar 2.25958 2.15846 4.3869
84 Ar 2.28065 2.12659 8.72697
85 Ar 2.22856 6.74354 -0.177905
86 Ar 2.17826 6.52777 4.55423
87 Ar 2.21025 6.70906 8.89167
88 Ar 2.00243 10.9881 0.141879
89 Ar 2.13725 11.1046 4.38226
90 Ar 2.33062 11.1415 8.83533
91 Ar 6.71335 2.2511 0.0208118
92 Ar 6.67298 2.26626 4.41061
93 Ar 6.46487 2.34522 8.91452
94 Ar 6.79791 6.70889 0.11606
95 Ar 6.66995 6.82702 4.43373
96 Ar 6.72162 6.53211 8.72481
97 Ar 6.57483 11.0311 -0.0955984
98 Ar 6.81324 11.3537 4.52472
99 Ar 6.61732 11.1125 8.97937
100 Ar 11.0714 2.32784 -0.106068
101 Ar 11.1357 2.24183 4.426
102 Ar 11.0933 2.13273 9.11326
103 Ar 11.1188 6.5164 -0.22581
104 Ar 11.3093 6.76456 4.63469
105 Ar 11.1215 6.78862 8.83725
106 Ar 11.0078 11.1373 0.0295315
107 Ar 11.0738 11.1161 4.4559
108 Ar 11.1529 11.1759 8.91244
ITEM: TIMESTEP
60060
ITEM: NUMBER OF ATOMS
108
ITEM: BOX BOUNDS pp pp pp
0.0000000000000000e+00 1.3349999400000000e+01
0.0000000000000000e+00 1.3349999400000000e+01
0.0000000000000000e+00 1.3349999400000000e+01
ITEM: ATOMS id element xu yu zu
1 Ar -0.015231 -0.0218771 0.116493
2 Ar -0.1915 -0.0787943 4.66666
3 Ar -0.0088858 0.0738124 8.98995
4 Ar -0.0386103 4.57196 0.0284506
5 Ar -0.0778015 4.57608 4.45555
6 Ar 0.0912932 4.4051 8.92292
7 Ar -0.184925 8.90126 -0.0967699
8 Ar 0.252334 8.75516 4.53823
9 Ar -0.128161 8.95921 8.8809
10 Ar 4.40307 -0.112286 0.204705
11 Ar 4.38749 -0.00880296 4.39492
12 Ar 4.36425 -0.00602091 9.0687
13 Ar 4.56517 4.55823 0.148676
14 Ar 4.49741 4.36883 4.39063
15 Ar 4.48418 4.54399 8.81224
16 Ar 4.3073 8.84028 0.0144384
17 Ar 4.49932 8.9431 4.38347
18 Ar 4.52962 8.84433 8.76731
19 Ar 8.99335 0.098088 0.00749558
20 Ar 8.95106 -0.0291771 4.41885
21 Ar 8.79617 0.0454463 8.8653
22 Ar 8.90127 4.45897 0.101714
23 Ar 9.14808 4.51393 4.3545
24 Ar 8.88997 4.29235 8.81869
25 Ar 8.87868 8.89339 0.00781211
26 Ar 9.00457 8.84706 4.42841
27 Ar 8.68607 8.97255 8.86837
28 Ar -0.0110109 2.16454 2.17186
29 Ar -0.0765709 2.29525 6.61896
30 Ar 0.0152186 2.26921 11.225
31 Ar 0.00956876 6.65422 2.08076
32 Ar -0.105502 6.82871 6.95063
33 Ar -0.102933 6.61982 11.0637
34 Ar -0.145959 11.1923 2.41757
35 Ar 0.0114615 11.2227 6.77975
36 Ar 0.00959911 11.2331 11.135
37 Ar 4.44665 2.00535 2.17685
38 Ar 4.46467 2.35335 6.60007
39 Ar 4.51292 2.40608 11.0834
40 Ar 4.48632 6.60247 2.31853
41 Ar 4.62578 6.66726 6.63969
42 Ar 4.54836 6.44597 11.2094
43 Ar 4.44702 11.1016 2.27074
44 Ar 4.48597 11.0268 6.4911
45 Ar 4.44689 11.2147 11.1527
46 Ar 8.9505 2.28796 2.19063
47 Ar 8.87547 2.23974 6.70877
48 Ar 8.80918 2.10459 11.1113
49 Ar 8.90351 6.60461 2.21863
50 Ar 9.01367 6.73061 6.72282
51 Ar 8.90095 6.64038 11.1365
52 Ar 9.11391 11.0706 2.23858
53 Ar 8.87313 11.055 6.73481
54 Ar 8.85676 11.2811 11.1179
55 Ar 2.09929 -0.105616 2.22352
56 Ar 2.30917 0.0395877 6.61811
57 Ar 2.07855 -0.035621 11.1119
58 Ar 2.19588 4.44132 2.33685
59 Ar 2.22354 4.26995 6.55108
60 Ar 2.36001 4.30152 11.1134
61 Ar 2.19195 8.97246 2.29259
62 Ar 2.23505 9.09506 6.762
63 Ar 2.25506 8.83383 10.9792
64 Ar 6.72389 -0.0612645 2.06273
65 Ar 6.43659 0.0290762 6.68448
66 Ar 6.56269 0.0252156 11.1923
67 Ar 6.77772 4.38718 2.27749
68 Ar 6.82247 4.31078 6.48541
69 Ar 6.82456 4.43848 11.0511
70 Ar 6.74343 8.92839 2.15709
71 Ar 6.58701 8.94342 6.66106
72 Ar 6.60023 8.72346 11.0763
73 Ar 11.1846 0.0944883 2.29569
74 Ar 10.9333 0.097818 6.73132
75 Ar 11.1292 -0.0485898 11.2583
76 Ar 11.2598 4.52498 2.1762
77 Ar 11.1304 4.45196 6.72053
78 Ar 11.056 4.52194 11.0512
79 Ar 11.1336 8.69507 2.12718
80 Ar 11.231 8.9635 6.74806
81 Ar 11.1702 9.04799 10.9498
82 Ar 2.43255 2.21344 0.0638753
83 Ar 2.25226 2.15275 4.37384
84 Ar 2.28895 2.12432 8.74649
85 Ar 2.22694 6.73298 -0.172232
86 Ar 2.17627 6.53119 4.57501
87 Ar 2.22965 6.70624 8.89123
88 Ar 2.00715 10.9661 0.139677
89 Ar 2.12172 11.0919 4.39643
90 Ar 2.32789 11.1486 8.83054
91 Ar 6.70606 2.2442 0.0182611
92 Ar 6.67713 2.27346 4.42442
93 Ar 6.47221 2.32446 8.93109
94 Ar 6.78283 6.70392 0.0998726
95 Ar 6.67675 6.81829 4.413
96 Ar 6.70413 6.52372 8.7303
97 Ar 6.57053 11.0568 -0.109311
98 Ar 6.80978 11.3482 4.54361
99 Ar 6.59384 11.1033 8.9808
100 Ar 11.0936 2.32391 -0.114637
101 Ar 11.1262 2.2632 4.4348
102 Ar 11.0938 2.14517 9.11309
103 Ar 11.118 6.54036 -0.221646
104 Ar 11.3099 6.78699 4.61628
105 Ar 11.1433 6.79066 8.83379
106 Ar 10.9937 11.1402 0.0174762
107 Ar 11.0817 11.1127 4.46316
108 Ar 11.127 11.1722 8.91184
ITEM: TIMESTEP
60070
ITEM: NUMBER OF ATOMS
108
ITEM: BOX BOUNDS pp pp pp
0.0000000000000000e+00 1.3349999400000000e+01
0.0000000000000000e+00 1.3349999400000000e+01
0.0000000000000000e+00 1.3349999400000000e+01
ITEM: ATOMS id element xu yu zu
1 Ar -0.015533 -0.0330213 0.117382
2 Ar -0.197137 -0.0845343 4.65407
3 Ar -0.0160493 0.0748127 8.98738
4 Ar -0.0431295 4.56749 0.0342338
5 Ar -0.0825547 4.60395 4.43898
6 Ar 0.0799488 4.41178 8.91094
7 Ar -0.178405 8.88617 -0.0884207
8 Ar 0.242661 8.73478 4.56115
9 Ar -0.127803 8.9693 8.87181
10 Ar 4.39436 -0.10617 0.201439
11 Ar 4.39031 -0.0216683 4.4025
12 Ar 4.37495 -0.0114854 9.07744
13 Ar 4.57266 4.55692 0.143396
14 Ar 4.49384 4.38041 4.38337
15 Ar 4.47601 4.53514 8.81761
16 Ar 4.30208 8.83204 0.0297139
17 Ar 4.4978 8.94297 4.38739
18 Ar 4.53565 8.84354 8.77502
19 Ar 9.0115 0.0941916 0.00331074
20 Ar 8.9458 -0.00756922 4.42538
21 Ar 8.7874 0.0549275 8.84872
22 Ar 8.90896 4.45324 0.0959755
23 Ar 9.14998 4.48614 4.37999
24 Ar 8.88235 4.29854 8.82025
25 Ar 8.86174 8.89093 0.00187701
26 Ar 9.01245 8.8517 4.44439
27 Ar 8.68616 8.97792 8.87101
28 Ar -0.00336032 2.16837 2.17397
29 Ar -0.089789 2.30408 6.61686
30 Ar 0.00527817 2.27213 11.2135
31 Ar 0.0207479 6.66682 2.08864
32 Ar -0.0953729 6.79379 6.94547
33 Ar -0.0976296 6.61943 11.0586
34 Ar -0.162258 11.173 2.421
35 Ar 0.0159467 11.1942 6.78051
36 Ar 0.0119496 11.2345 11.1194
37 Ar 4.46128 2.0187 2.16906
38 Ar 4.4696 2.34679 6.57713
39 Ar 4.51759 2.40917 11.0863
40 Ar 4.50039 6.6168 2.31836
41 Ar 4.6163 6.65908 6.63697
42 Ar 4.54569 6.43215 11.2095
43 Ar 4.45176 11.0852 2.27365
44 Ar 4.4757 11.0488 6.47462
45 Ar 4.45382 11.1947 11.1594
46 Ar 8.94898 2.30252 2.2058
47 Ar 8.87768 2.22934 6.70767
48 Ar 8.82867 2.10085 11.1135
49 Ar 8.89003 6.59394 2.23462
50 Ar 9.01591 6.7145 6.73592
51 Ar 8.90209 6.63636 11.132
52 Ar 9.11213 11.0599 2.24227
53 Ar 8.88255 11.0516 6.75486
54 Ar 8.88949 11.2904 11.1136
55 Ar 2.10567 -0.101597 2.24417
56 Ar 2.31168 0.0604066 6.61262
57 Ar 2.09114 -0.0203132 11.0974
58 Ar 2.18659 4.4298 2.33463
59 Ar 2.21009 4.26593 6.54941
60 Ar 2.36351 4.29468 11.127
61 Ar 2.18446 8.98655 2.29762
62 Ar 2.23568 9.07591 6.75734
63 Ar 2.25545 8.8304 10.9897
64 Ar 6.71473 -0.0667523 2.06277
65 Ar 6.44292 0.0517762 6.69599
66 Ar 6.56813 0.00696738 11.2031
67 Ar 6.77982 4.41289 2.26972
68 Ar 6.82742 4.34677 6.47868
69 Ar 6.81969 4.42903 11.0585
70 Ar 6.76981 8.92056 2.15759
71 Ar 6.57148 8.93591 6.66025
72 Ar 6.61348 8.76927 11.0828
73 Ar 11.1719 0.120237 2.28611
74 Ar 10.9533 0.0972169 6.71771
75 Ar 11.1341 -0.0504529 11.26
76 Ar 11.2631 4.53526 2.15626
77 Ar 11.1268 4.45303 6.72431
78 Ar 11.0698 4.52644 11.0423
79 Ar 11.1376 8.68581 2.11223
80 Ar 11.2068 8.97224 6.74113
81 Ar 11.1439 9.05483 10.9375
82 Ar 2.43224 2.20849 0.0424491
83 Ar 2.24294 2.14703 4.36069
84 Ar 2.29628 2.12395 8.76838
85 Ar 2.22424 6.721 -0.164509
86 Ar 2.17653 6.53666 4.59579
87 Ar 2.24983 6.70213 8.89006
88 Ar 2.01379 10.9457 0.13508
89 Ar 2.10755 11.0811 4.41234
90 Ar 2.32417 11.1561 8.82754
91 Ar 6.69766 2.23746 0.0153339
92 Ar 6.68263 2.27703 4.4366
93 Ar 6.48232 2.30139 8.94564
94 Ar 6.76596 6.6983 0.0825029
95 Ar 6.68532 6.80719 4.39282
96 Ar 6.68825 6.51653 8.73768
97 Ar 6.56831 11.0819 -0.121667
98 Ar 6.80518 11.339 4.55944
99 Ar 6.57007 11.0958 8.98119
100 Ar 11.1165 2.31978 -0.121821
101 Ar 11.1168 2.28447 4.44371
102 Ar 11.0952 2.15841 9.11071
103 Ar 11.1158 6.56788 -0.214314
104 Ar 11.3087 6.80903 4.59574
105 Ar 11.1612 6.79042 8.83373
106 Ar 10.9823 11.1423 0.0050978
107 Ar 11.09 11.1075 4.47257
108 Ar 11.0999 11.1706 8.91065
ITEM: TIMESTEP
60080
ITEM: NUMBER OF ATOMS
108
ITEM: BOX BOUNDS pp pp pp
0.0000000000000000e+00 1.3349999400000000e+01
0.0000000000000000e+00 1.3349999400000000e+01
0.0000000000000000e+00 1.3349999400000000e+01
ITEM: ATOMS id element xu yu zu
1 Ar -0.0159835 -0.043949 0.11642
2 Ar -0.200122 -0.0878201 4.64002
3 Ar -0.0236746 0.0757033 8.98226
4 Ar -0.0445143 4.55993 0.0376849
5 Ar -0.0867171 4.62924 4.42315
6 Ar 0.0684654 4.4178 8.89909
7 Ar -0.170404 8.87133 -0.0804228
8 Ar 0.22926 8.71667 4.58314
9 Ar -0.122938 8.98082 8.86509
10 Ar 4.38451 -0.100725 0.193496
11 Ar 4.39421 -0.0346132 4.40949
12 Ar 4.38686 -0.016294 9.08355
13 Ar 4.57894 4.55329 0.138137
14 Ar 4.49004 4.39302 4.37585
15 Ar 4.46631 4.52537 8.82223
16 Ar 4.29919 8.82448 0.0445475
17 Ar 4.49523 8.9416 4.3912
18 Ar 4.54015 8.84261 8.78558
19 Ar 9.0274 0.0891863 0.000734872
20 Ar 8.9399 0.0155461 4.43196
21 Ar 8.77778 0.0635141 8.83287
22 Ar 8.91665 4.44712 0.087774
23 Ar 9.14964 4.45961 4.40664
24 Ar 8.87541 4.3067 8.82297
25 Ar 8.84623 8.88879 -0.006026
26 Ar 9.01889 8.85684 4.46071
27 Ar 8.68883 8.98143 8.87504
28 Ar 0.00486471 2.17408 2.17693
29 Ar -0.102381 2.31117 6.61579
30 Ar -0.00347121 2.27512 11.2021
31 Ar 0.0335842 6.68126 2.09822
32 Ar -0.0809187 6.75589 6.93637
33 Ar -0.0897011 6.62011 11.0528
34 Ar -0.178537 11.1513 2.42176
35 Ar 0.019785 11.1662 6.78073
36 Ar 0.014342 11.2334 11.104
37 Ar 4.4768 2.03568 2.16351