ITEM: TIMESTEP
88000
ITEM: NUMBER OF ATOMS
108
ITEM: BOX BOUNDS pp pp pp
0.0000000000000000e+00 1.3349999400000000e+01
0.0000000000000000e+00 1.3349999400000000e+01
0.0000000000000000e+00 1.3349999400000000e+01
ITEM: ATOMS id element xu yu zu
1 Ar 0.0086648 0.0605665 -0.0801676
2 Ar -0.192414 0.0780127 4.4873
3 Ar -0.181021 -0.23965 9.11248
4 Ar 0.0532507 4.52181 0.0611684
5 Ar -0.0842301 4.41627 4.26218
6 Ar 0.0293749 4.71078 8.6759
7 Ar 0.0957795 9.01467 0.0561719
8 Ar 0.144787 8.92937 4.40798
9 Ar -0.0712178 8.92283 8.81456
10 Ar 4.3901 0.195789 0.199744
11 Ar 4.33865 -0.0641183 4.48889
12 Ar 4.4372 -0.0123585 8.77348
13 Ar 4.33167 4.48658 -0.0216005
14 Ar 4.56656 4.25519 4.56973
15 Ar 4.38167 4.28346 8.84379
16 Ar 4.57261 9.05959 -0.124706
17 Ar 4.31762 9.05461 4.55577
18 Ar 4.4971 8.83762 8.82537
19 Ar 8.9257 0.0843731 -0.0575446
20 Ar 8.9215 -0.0482676 4.51074
21 Ar 8.86248 0.141646 8.79572
22 Ar 8.88629 4.56737 -0.112179
23 Ar 9.04689 4.30756 4.33216
24 Ar 8.96478 4.09249 8.84012
25 Ar 8.78273 8.96274 -0.168441
26 Ar 8.89107 8.98376 4.53114
27 Ar 8.79861 8.9716 8.77505
28 Ar -0.044784 2.10693 2.1948
29 Ar 0.117703 2.03127 6.8023
30 Ar 0.0378942 2.1779 11.094
31 Ar 0.136701 6.7387 2.11427
32 Ar -0.0126957 6.67855 6.44741
33 Ar 0.104751 6.86949 11.1144
34 Ar -0.0131626 11.2029 2.33896
35 Ar 0.0119408 11.0721 6.47501
36 Ar -0.150081 11.167 11.2897
37 Ar 4.37785 2.17727 2.30076
38 Ar 4.21488 2.10672 6.49085
39 Ar 4.53321 2.24112 11.128
40 Ar 4.56396 6.59302 2.37175
41 Ar 4.41937 6.51958 6.75665
42 Ar 4.54243 6.68184 11.1962
43 Ar 4.63938 11.2031 2.17069
44 Ar 4.44225 11.1097 6.84194
45 Ar 4.57095 11.2027 10.9745
46 Ar 9.06321 2.32292 2.06564
47 Ar 9.06486 2.17961 6.46474
48 Ar 8.76353 2.25675 11.2915
49 Ar 8.74956 6.5415 2.27441
50 Ar 8.74838 6.40011 6.69615
51 Ar 8.99135 6.69088 11.0427
52 Ar 9.00237 11.108 2.35883
53 Ar 8.83451 11.2514 6.72363
54 Ar 8.78929 11.1201 11.0604
55 Ar 2.2002 0.0831339 2.27746
56 Ar 2.14283 -0.257983 6.68889
57 Ar 2.36937 0.0988911 11.2496
58 Ar 2.12796 4.47401 2.16993
59 Ar 2.22544 4.49574 6.63268
60 Ar 2.21321 4.61859 10.829
61 Ar 2.29261 9.02037 2.23038
62 Ar 2.15366 8.86793 6.6209
63 Ar 2.24186 8.97718 11.0882
64 Ar 6.85934 0.0941525 2.41549
65 Ar 6.73634 0.0627373 6.66545
66 Ar 6.73609 0.0991381 11.0944
67 Ar 6.66636 4.07414 2.24828
68 Ar 6.63409 4.35485 6.77417
69 Ar 6.7084 4.42256 11.061
70 Ar 6.86732 8.8528 2.3205
71 Ar 6.76029 8.85401 6.84939
72 Ar 6.73186 8.90298 11.1297
73 Ar 11.1573 -0.143365 2.04713
74 Ar 11.2072 0.0993769 6.74234
75 Ar 10.9993 0.130825 11.1205
76 Ar 11.1917 4.42908 2.21738
77 Ar 11.2906 4.37667 6.60446
78 Ar 11.3845 4.44449 11.0922
79 Ar 11.122 8.85661 2.12961
80 Ar 11.1563 8.88419 6.70421
81 Ar 11.2888 8.95551 11.1799
82 Ar 2.30681 2.31543 -0.00489296
83 Ar 1.92397 2.15829 4.49808
84 Ar 2.0108 2.08892 8.96296
85 Ar 2.19457 6.79541 0.0069491
86 Ar 2.4071 6.69067 4.43536
87 Ar 2.14122 6.85512 8.73252
88 Ar 2.31169 11.2459 0.20061
89 Ar 2.17899 11.1339 4.39663
90 Ar 2.13044 11.2399 9.02575
91 Ar 6.58857 2.29809 -0.0017513
92 Ar 6.56474 2.00764 4.68714
93 Ar 6.62384 2.10715 9.02927
94 Ar 6.53415 6.44665 0.173847
95 Ar 6.61768 6.72245 4.62069
96 Ar 6.64534 6.72327 9.03523
97 Ar 6.74932 11.3365 0.241476
98 Ar 6.61044 11.1336 4.54645
99 Ar 6.64116 11.1436 8.84994
100 Ar 11.2961 2.3064 -0.212121
101 Ar 11.241 2.20348 4.35342
102 Ar 11.2407 2.14545 9.03919
103 Ar 11.0378 6.59739 -0.0383888
104 Ar 11.0874 6.74873 4.34318
105 Ar 10.9155 6.6123 8.70451
106 Ar 10.9787 11.1163 0.0859254
107 Ar 11.1042 11.0325 4.46979
108 Ar 10.987 11.0902 8.95019
ITEM: TIMESTEP
88010
ITEM: NUMBER OF ATOMS
108
ITEM: BOX BOUNDS pp pp pp
0.0000000000000000e+00 1.3349999400000000e+01
0.0000000000000000e+00 1.3349999400000000e+01
0.0000000000000000e+00 1.3349999400000000e+01
ITEM: ATOMS id element xu yu zu
1 Ar 0.0193065 0.0509228 -0.0528315
2 Ar -0.185933 0.0975877 4.48921
3 Ar -0.198627 -0.235286 9.08457
4 Ar 0.0684462 4.50804 0.0496617
5 Ar -0.0895139 4.43264 4.27963
6 Ar 0.00638306 4.71236 8.69589
7 Ar 0.109544 9.01039 0.0511483
8 Ar 0.131805 8.94056 4.40407
9 Ar -0.0908204 8.93118 8.81009
10 Ar 4.39791 0.205263 0.190281
11 Ar 4.33582 -0.051852 4.47556
12 Ar 4.43007 -0.0155023 8.78357
13 Ar 4.3235 4.50925 -0.0262927
14 Ar 4.56532 4.25848 4.57104
15 Ar 4.3671 4.2906 8.83931
16 Ar 4.57818 9.0594 -0.123769
17 Ar 4.31459 9.02719 4.56433
18 Ar 4.5157 8.85766 8.82149
19 Ar 8.9195 0.0739691 -0.0730931
20 Ar 8.90947 -0.0639039 4.52781
21 Ar 8.86708 0.146019 8.82259
22 Ar 8.88962 4.55022 -0.102492
23 Ar 9.03137 4.31063 4.34033
24 Ar 8.9681 4.10497 8.82994
25 Ar 8.79752 8.95571 -0.161242
26 Ar 8.88966 8.99643 4.54033
27 Ar 8.80666 8.98706 8.77945
28 Ar -0.0472848 2.13505 2.16782
29 Ar 0.121587 2.01189 6.80977
30 Ar 0.0441689 2.16655 11.112
31 Ar 0.122325 6.74404 2.1053
32 Ar -0.0268612 6.67411 6.42744
33 Ar 0.0891679 6.88795 11.111
34 Ar -0.00252694 11.1931 2.34304
35 Ar 0.00926183 11.0802 6.49096
36 Ar -0.151366 11.1499 11.2911
37 Ar 4.37649 2.15119 2.30806
38 Ar 4.21705 2.11567 6.48104
39 Ar 4.52672 2.24553 11.1352
40 Ar 4.54177 6.58146 2.35225
41 Ar 4.42268 6.51813 6.7399
42 Ar 4.55848 6.6797 11.1746
43 Ar 4.63812 11.1847 2.18347
44 Ar 4.45517 11.1113 6.83516
45 Ar 4.55609 11.1977 10.966
46 Ar 9.05844 2.31814 2.06647
47 Ar 9.06864 2.1587 6.4791
48 Ar 8.75431 2.25951 11.2704
49 Ar 8.75714 6.54584 2.28618
50 Ar 8.75579 6.39572 6.67593
51 Ar 8.98822 6.70119 11.0192
52 Ar 9.00424 11.0942 2.34446
53 Ar 8.83552 11.2576 6.72579
54 Ar 8.78823 11.1265 11.0696
55 Ar 2.20597 0.0969519 2.30046
56 Ar 2.14767 -0.236495 6.67313
57 Ar 2.36263 0.100711 11.2385
58 Ar 2.12835 4.4844 2.15934
59 Ar 2.22805 4.4832 6.63395
60 Ar 2.21974 4.62648 10.8223
61 Ar 2.30753 8.99559 2.22256
62 Ar 2.16112 8.8791 6.61521
63 Ar 2.23589 8.9601 11.0718
64 Ar 6.85589 0.073817 2.42626
65 Ar 6.73575 0.0530259 6.67708
66 Ar 6.73974 0.0904079 11.0963
67 Ar 6.66091 4.08626 2.24996
68 Ar 6.64077 4.37282 6.7859
69 Ar 6.69775 4.42662 11.049
70 Ar 6.83092 8.87416 2.327
71 Ar 6.76366 8.84289 6.85522
72 Ar 6.73096 8.91744 11.1249
73 Ar 11.1578 -0.152684 2.04847
74 Ar 11.2187 0.094822 6.75237
75 Ar 11.0001 0.124625 11.1293
76 Ar 11.2046 4.43161 2.22303
77 Ar 11.2908 4.37106 6.60026
78 Ar 11.3807 4.43822 11.0769
79 Ar 11.1116 8.84544 2.1202
80 Ar 11.1738 8.86531 6.72067
81 Ar 11.2858 8.95587 11.1712
82 Ar 2.30924 2.33428 0.0121853
83 Ar 1.92217 2.17008 4.47967
84 Ar 2.01516 2.08229 8.95264
85 Ar 2.19007 6.78827 -0.00826404
86 Ar 2.41625 6.68576 4.43054
87 Ar 2.14806 6.84719 8.72948
88 Ar 2.29885 11.27 0.206792
89 Ar 2.17861 11.1539 4.41546
90 Ar 2.14088 11.2466 9.02166
91 Ar 6.60892 2.29341 0.00760412
92 Ar 6.56638 2.01265 4.68048
93 Ar 6.63253 2.11125 9.03153
94 Ar 6.55468 6.45384 0.193396
95 Ar 6.63044 6.74187 4.63596
96 Ar 6.62405 6.70637 9.03342
97 Ar 6.74224 11.332 0.251144
98 Ar 6.59478 11.1234 4.55184
99 Ar 6.63432 11.1575 8.84877
100 Ar 11.2904 2.31054 -0.229381
101 Ar 11.2405 2.1976 4.35751
102 Ar 11.2555 2.11551 9.0557
103 Ar 11.0281 6.60619 -0.0325191
104 Ar 11.0778 6.73769 4.36232
105 Ar 10.9462 6.6038 8.70071
106 Ar 10.9823 11.1039 0.0834476
107 Ar 11.1003 11.0338 4.47907
108 Ar 11.0048 11.0923 8.94588
ITEM: TIMESTEP
88020
ITEM: NUMBER OF ATOMS
108
ITEM: BOX BOUNDS pp pp pp
0.0000000000000000e+00 1.3349999400000000e+01
0.0000000000000000e+00 1.3349999400000000e+01
0.0000000000000000e+00 1.3349999400000000e+01
ITEM: ATOMS id element xu yu zu
1 Ar 0.0304012 0.0402011 -0.0250026
2 Ar -0.177565 0.11319 4.48976
3 Ar -0.213131 -0.229531 9.05486
4 Ar 0.0835241 4.49419 0.0354974
5 Ar -0.0922791 4.45047 4.29916
6 Ar -0.0166274 4.71122 8.71826
7 Ar 0.122183 9.00642 0.0465184
8 Ar 0.116415 8.94968 4.3985
9 Ar -0.109374 8.94016 8.80637
10 Ar 4.40828 0.211257 0.17806
11 Ar 4.33374 -0.0408063 4.46194
12 Ar 4.42249 -0.0162685 8.79505
13 Ar 4.31574 4.53116 -0.0309389
14 Ar 4.56239 4.26461 4.56948
15 Ar 4.35342 4.29806 8.83483
16 Ar 4.58301 9.05791 -0.120817
17 Ar 4.31504 8.99866 4.57192
18 Ar 4.53205 8.87799 8.81933
19 Ar 8.91283 0.0629752 -0.0865032
20 Ar 8.90013 -0.0789558 4.54309
21 Ar 8.87298 0.149393 8.85091
22 Ar 8.89347 4.53171 -0.0921909
23 Ar 9.01329 4.31479 4.35021
24 Ar 8.97163 4.11983 8.82072
25 Ar 8.81315 8.9468 -0.151096
26 Ar 8.88842 9.00678 4.55054
27 Ar 8.81805 9.00056 8.78671
28 Ar -0.0496568 2.16408 2.13923
29 Ar 0.123214 1.99576 6.81693
30 Ar 0.0528239 2.15666 11.1302
31 Ar 0.105693 6.75 2.09894
32 Ar -0.0405607 6.67021 6.40803
33 Ar 0.0718884 6.90366 11.1074
34 Ar 0.00790416 11.1826 2.34525
35 Ar 0.00485082 11.0889 6.51028
36 Ar -0.14994 11.1334 11.292
37 Ar 4.37522 2.12746 2.31716
38 Ar 4.21912 2.12416 6.47624
39 Ar 4.5179 2.2502 11.1424
40 Ar 4.51904 6.57088 2.3322
41 Ar 4.42723 6.519 6.72291
42 Ar 4.57226 6.67805 11.1525
43 Ar 4.63434 11.1657 2.19872
44 Ar 4.46727 11.1123 6.82582
45 Ar 4.54027 11.1929 10.9607
46 Ar 9.05394 2.31058 2.06763
47 Ar 9.07109 2.13948 6.4957
48 Ar 8.74836 2.26324 11.2476
49 Ar 8.76598 6.55098 2.2978
50 Ar 8.7657 6.3934 6.65548
51 Ar 8.98448 6.71094 10.9956
52 Ar 9.00387 11.0807 2.32917
53 Ar 8.83843 11.2622 6.7275
54 Ar 8.78838 11.1341 11.0792
55 Ar 2.21044 0.109407 2.32331
56 Ar 2.15265 -0.21253 6.65778
57 Ar 2.35502 0.100407 11.2269
58 Ar 2.13147 4.49407 2.15145
59 Ar 2.22896 4.46924 6.6346
60 Ar 2.22524 4.63293 10.8191
61 Ar 2.32385 8.96966 2.21427
62 Ar 2.16953 8.89197 6.61097
63 Ar 2.23121 8.94433 11.0559
64 Ar 6.8511 0.0543267 2.43485
65 Ar 6.73292 0.041829 6.69079
66 Ar 6.74131 0.0784141 11.1002
67 Ar 6.65537 4.10217 2.25411
68 Ar 6.64774 4.38872 6.79748
69 Ar 6.68655 4.43217 11.0373
70 Ar 6.79199 8.89578 2.33235
71 Ar 6.76455 8.83205 6.8566
72 Ar 6.72876 8.93184 11.1197
73 Ar 11.1572 -0.158032 2.05254
74 Ar 11.2286 0.087379 6.762
75 Ar 11.0007 0.11465 11.1393
76 Ar 11.2166 4.43555 2.22608
77 Ar 11.289 4.36457 6.59578
78 Ar 11.3747 4.43432 11.0602
79 Ar 11.1009 8.83377 2.11161
80 Ar 11.1891 8.84684 6.73525
81 Ar 11.279 8.95459 11.162
82 Ar 2.3092 2.35299 0.0282258
83 Ar 1.92376 2.18352 4.46051
84 Ar 2.02311 2.07649 8.94188
85 Ar 2.18866 6.7808 -0.0243182
86 Ar 2.42305 6.67946 4.42528
87 Ar 2.15617 6.83834 8.72824
88 Ar 2.28586 11.2931 0.209824
89 Ar 2.17973 11.1746 4.43361
90 Ar 2.15133 11.2508 9.0173
91 Ar 6.62944 2.28728 0.0169564
92 Ar 6.57052 2.02154 4.67029
93 Ar 6.64067 2.11754 9.02946
94 Ar 6.577 6.46392 0.210624
95 Ar 6.64293 6.76013 4.64904
96 Ar 6.6042 6.68711 9.02963
97 Ar 6.73585 11.3265 0.256642
98 Ar 6.57968 11.1127 4.55727
99 Ar 6.62901 11.1723 8.84851
100 Ar 11.2818 2.31466 -0.242596
101 Ar 11.2377 2.19153 4.36186
102 Ar 11.2694 2.08873 9.06934
103 Ar 11.0202 6.61671 -0.0262652
104 Ar 11.0679 6.72659 4.3819
105 Ar 10.9785 6.596 8.6991
106 Ar 10.9871 11.091 0.0780925
107 Ar 11.0971 11.0362 4.48883
108 Ar 11.0227 11.0946 8.94081
ITEM: TIMESTEP
88030
ITEM: NUMBER OF ATOMS
108
ITEM: BOX BOUNDS pp pp pp
0.0000000000000000e+00 1.3349999400000000e+01
0.0000000000000000e+00 1.3349999400000000e+01
0.0000000000000000e+00 1.3349999400000000e+01
ITEM: ATOMS id element xu yu zu
1 Ar 0.0416949 0.0285764 0.00290039
2 Ar -0.167451 0.124556 4.48873
3 Ar -0.223789 -0.222845 9.02429
4 Ar 0.0980246 4.48076 0.0186009
5 Ar -0.0923803 4.46926 4.32024
6 Ar -0.0389077 4.7073 8.74238
7 Ar 0.133589 9.00282 0.0423917
8 Ar 0.0990301 8.9567 4.39148
9 Ar -0.126046 8.9495 8.80354
10 Ar 4.42088 0.213604 0.163267
11 Ar 4.33274 -0.0311294 4.4485
12 Ar 4.41462 -0.014498 8.80765
13 Ar 4.30886 4.55201 -0.0356323
14 Ar 4.55796 4.27353 4.56501
15 Ar 4.34089 4.30566 8.83026
16 Ar 4.5869 9.0551 -0.116114
17 Ar 4.31885 8.96948 4.57845
18 Ar 4.54583 8.8982 8.81885
19 Ar 8.90585 0.0516136 -0.0974714
20 Ar 8.89349 -0.0932932 4.55623
21 Ar 8.88011 0.151508 8.88023
22 Ar 8.89783 4.51227 -0.081595
23 Ar 8.99293 4.31961 4.36159
24 Ar 8.97562 4.13688 8.8125
25 Ar 8.82908 8.9361 -0.13832
26 Ar 8.88736 9.01476 4.56154
27 Ar 8.83244 9.01193 8.79655
28 Ar -0.0520021 2.19364 2.10973
29 Ar 0.122572 1.98339 6.82352
30 Ar 0.0639584 2.14816 11.1485
31 Ar 0.0871036 6.75633 2.09513
32 Ar -0.0530758 6.66686 6.38975
33 Ar 0.0530905 6.9162 11.1036
34 Ar 0.0179866 11.1717 2.34573
35 Ar -0.0010625 11.0979 6.53256
36 Ar -0.145683 11.118 11.2921
37 Ar 4.37447 2.10677 2.3278
38 Ar 4.22127 2.13201 6.47644
39 Ar 4.50705 2.25515 11.1494
40 Ar 4.49627 6.5614 2.31187
41 Ar 4.43275 6.52219 6.70599
42 Ar 4.58355 6.67711 11.1304
43 Ar 4.6277 11.1465 2.21611
44 Ar 4.47826 11.113 6.81394
45 Ar 4.52363 11.188 10.9588
46 Ar 9.04979 2.30034 2.06932
47 Ar 9.07217 2.12215 6.51436
48 Ar 8.74572 2.26791 11.2234
49 Ar 8.77586 6.55709 2.30928
50 Ar 8.77837 6.39339 6.6355
51 Ar 8.9802 6.71987 10.9723
52 Ar 9.00133 11.0674 2.31328
53 Ar 8.84321 11.265 6.72908
54 Ar 8.78983 11.1426 11.0891
55 Ar 2.21331 0.12018 2.34541
56 Ar 2.15794 -0.186514 6.64318
57 Ar 2.34653 0.098094 11.2151
58 Ar 2.13707 4.50311 2.14657
59 Ar 2.22785 4.45418 6.63474
60 Ar 2.22947 4.63789 10.8195
61 Ar 2.34129 8.94312 2.20575
62 Ar 2.17847 8.90618 6.60837
63 Ar 2.22804 8.93007 11.0404
64 Ar 6.84512 0.035787 2.44124
65 Ar 6.72781 0.0297426 6.70616
66 Ar 6.74047 0.0635414 11.1059
67 Ar 6.64963 4.12156 2.26054
68 Ar 6.65475 4.40223 6.80865
69 Ar 6.67507 4.43896 11.0266
70 Ar 6.75122 8.91701 2.33663
71 Ar 6.76329 8.82174 6.85396
72 Ar 6.72549 8.94598 11.1142
73 Ar 11.1554 -0.159503 2.05924
74 Ar 11.2364 0.0770967 6.77078
75 Ar 11.0013 0.10079 11.1506
76 Ar 11.2275 4.44083 2.2266
77 Ar 11.2853 4.357 6.59124
78 Ar 11.3665 4.43284 11.0425
79 Ar 11.0902 8.8218 2.10418
80 Ar 11.2019 8.82919 6.74743
81 Ar 11.2682 8.95175 11.1524
82 Ar 2.30707 2.37095 0.0429374
83 Ar 1.92851 2.19888 4.44095
84 Ar 2.03443 2.07171 8.93107
85 Ar 2.19017 6.77313 -0.0411955
86 Ar 2.42707 6.67178 4.41976
87 Ar 2.16526 6.82889 8.72841
88 Ar 2.27318 11.3149 0.209893
89 Ar 2.18231 11.1953 4.45072
90 Ar 2.16142 11.2527 9.01246
91 Ar 6.64977 2.27992 0.0261959
92 Ar 6.57725 2.03395 4.65713
93 Ar 6.64788 2.12583 9.02317
94 Ar 6.60084 6.47676 0.225188
95 Ar 6.65478 6.77698 4.65927
96 Ar 6.58631 6.66606 9.02357
97 Ar 6.73009 11.3199 0.257871
98 Ar 6.56536 11.1018 4.56283
99 Ar 6.62548 11.1877 8.84924
100 Ar 11.2704 2.31866 -0.25163
101 Ar 11.2327 2.18548 4.36629
102 Ar 11.2821 2.06582 9.07996
103 Ar 11.0142 6.62843 -0.0200093
104 Ar 11.0577 6.7157 4.40154
105 Ar 11.0116 6.58905 8.69963
106 Ar 10.9932 11.0776 0.0700493
107 Ar 11.0948 11.0396 4.4989
108 Ar 11.0402 11.0971 8.9351
ITEM: TIMESTEP
88040
ITEM: NUMBER OF ATOMS
108
ITEM: BOX BOUNDS pp pp pp
0.0000000000000000e+00 1.3349999400000000e+01
0.0000000000000000e+00 1.3349999400000000e+01
0.0000000000000000e+00 1.3349999400000000e+01
ITEM: ATOMS id element xu yu zu
1 Ar 0.0528788 0.0162866 0.030479
2 Ar -0.155768 0.131598 4.48594
3 Ar -0.229898 -0.215644 8.99386
4 Ar 0.111532 4.46832 -0.00102643
5 Ar -0.0897812 4.48849 4.3423
6 Ar -0.0596729 4.70051 8.76762
7 Ar 0.143694 8.99965 0.0388514
8 Ar 0.0800997 8.9617 4.38323
9 Ar -0.140062 8.95893 8.80177
10 Ar 4.43533 0.212277 0.146183
11 Ar 4.33316 -0.0229109 4.43576
12 Ar 4.40665 -0.010156 8.82111
13 Ar 4.30332 4.57152 -0.0404791
14 Ar 4.55222 4.28511 4.55771
15 Ar 4.32969 4.3132 8.82556
16 Ar 4.58964 9.05094 -0.109943
17 Ar 4.32584 8.9401 4.58383
18 Ar 4.55685 8.91794 8.81996
19 Ar 8.89872 0.0401176 -0.10574
20 Ar 8.88946 -0.106759 4.56698
21 Ar 8.88835 0.152132 8.91007
22 Ar 8.90268 4.49236 -0.0709787
23 Ar 8.97061 4.32463 4.37419
24 Ar 8.98023 4.15594 8.80535
25 Ar 8.84474 8.92369 -0.123299
26 Ar 8.88651 9.02043 4.57305
27 Ar 8.84937 9.02108 8.80861
28 Ar -0.054404 2.22332 2.08007
29 Ar 0.119664 1.97526 6.82924
30 Ar 0.0774914 2.14099 11.1664
31 Ar 0.0669421 6.76278 2.09373
32 Ar -0.0637377 6.66413 6.37321
33 Ar 0.0330055 6.9253 11.0997
34 Ar 0.0275766 11.1604 2.34459
35 Ar -0.00817488 11.1073 6.5573
36 Ar -0.138551 11.1042 11.2912
37 Ar 4.37463 2.08971 2.33955
38 Ar 4.22379 2.13911 6.48144
39 Ar 4.49454 2.26039 11.1561
40 Ar 4.474 6.55319 2.29148
41 Ar 4.43893 6.52763 6.68948
42 Ar 4.5921 6.67711 11.1088
43 Ar 4.61792 11.1275 2.23522
44 Ar 4.48785 11.1136 6.79967
45 Ar 4.5063 11.1833 10.9605
46 Ar 9.04604 2.28758 2.0718
47 Ar 9.07183 2.10681 6.53489
48 Ar 8.74635 2.27343 11.1982
49 Ar 8.78655 6.56428 2.3206
50 Ar 8.79397 6.3959 6.61663
51 Ar 8.97539 6.72777 10.9497
52 Ar 8.99675 11.0547 2.29712
53 Ar 8.84977 11.266 6.73083
54 Ar 8.79265 11.1516 11.099
55 Ar 2.21436 0.128976 2.36614
56 Ar 2.1637 -0.158887 6.62964
57 Ar 2.33714 0.0938874 11.2034
58 Ar 2.14483 4.5116 2.14489
59 Ar 2.22449 4.43836 6.6345
60 Ar 2.23222 4.6413 10.8235
61 Ar 2.35951 8.91646 2.19718
62 Ar 2.18755 8.92139 6.60751
63 Ar 2.2265 8.91743 11.0255
64 Ar 6.83811 0.0182622 2.44543
65 Ar 6.72045 0.0173867 6.72265
66 Ar 6.73698 0.0463239 11.1132
67 Ar 6.64364 4.1441 2.26899
68 Ar 6.66158 4.41312 6.81912
69 Ar 6.66359 4.4467 11.0171
70 Ar 6.70934 8.93723 2.33995
71 Ar 6.76028 8.8122 6.84788
72 Ar 6.72142 8.95971 11.1086
73 Ar 11.1525 -0.157324 2.0684
74 Ar 11.2418 0.064124 6.77823
75 Ar 11.0024 0.0830999 11.1632
76 Ar 11.2367 4.44734 2.22479
77 Ar 11.2798 4.34819 6.58687
78 Ar 11.3561 4.4337 11.0246
79 Ar 11.0797 8.80974 2.09829
80 Ar 11.2116 8.81273 6.75679
81 Ar 11.2533 8.9475 11.1426
82 Ar 2.30331 2.38756 0.0560897
83 Ar 1.93611 2.21635 4.42136
84 Ar 2.04886 2.06812 8.92053
85 Ar 2.19428 6.76539 -0.0588328
86 Ar 2.42795 6.66276 4.41421
87 Ar 2.17505 6.81908 8.7296
88 Ar 2.26128 11.335 0.20722
89 Ar 2.18626 11.2152 4.46649
90 Ar 2.17081 11.2525 9.00695
91 Ar 6.66956 2.27159 0.0352313
92 Ar 6.5866 2.04941 4.6416
93 Ar 6.65384 2.13585 9.01289
94 Ar 6.6259 6.49221 0.236811
95 Ar 6.66573 6.79216 4.66606
96 Ar 6.57081 6.64384 9.01495
97 Ar 6.72481 11.3123 0.254846
98 Ar 6.55208 11.0907 4.5686
99 Ar 6.62392 11.2036 8.85103
100 Ar 11.2562 2.3224 -0.256514
101 Ar 11.2255 2.17967 4.37062
102 Ar 11.2933 2.04734 9.0876
103 Ar 11.01 6.64085 -0.0141419
104 Ar 11.047 6.70523 4.42081
105 Ar 11.0448 6.58315 8.7022
106 Ar 11.0008 11.064 0.0596238
107 Ar 11.0933 11.044 4.50909
108 Ar 11.0569 11.0997 8.92895
ITEM: TIMESTEP
88050
ITEM: NUMBER OF ATOMS
108
ITEM: BOX BOUNDS pp pp pp
0.0000000000000000e+00 1.3349999400000000e+01
0.0000000000000000e+00 1.3349999400000000e+01
0.0000000000000000e+00 1.3349999400000000e+01
ITEM: ATOMS id element xu yu zu
1 Ar 0.0635961 0.00362648 0.0573652
2 Ar -0.142728 0.134397 4.48132
3 Ar -0.230843 -0.208274 8.96453
4 Ar 0.123677 4.45745 -0.0233027
5 Ar -0.0845577 4.50755 4.36468
6 Ar -0.0781281 4.69073 8.79332
7 Ar 0.152469 8.9969 0.0359486
8 Ar 0.060083 8.96477 4.37407
9 Ar -0.150754 8.96819 8.8012
10 Ar 4.45121 0.207375 0.127179
11 Ar 4.33532 -0.016185 4.42424
12 Ar 4.39876 -0.00333195 8.83518
13 Ar 4.2996 4.58939 -0.0455874
14 Ar 4.54535 4.29909 4.54782
15 Ar 4.31994 4.32058 8.82071
16 Ar 4.59109 9.04543 -0.1026
17 Ar 4.33573 8.91089 4.58799
18 Ar 4.56501 8.93686 8.82252
19 Ar 8.89162 0.0287239 -0.111104
20 Ar 8.88787 -0.119178 4.57513
21 Ar 8.89753 0.151076 8.93996
22 Ar 8.90797 4.47243 -0.0605651
23 Ar 8.94666 4.32947 4.38771
24 Ar 8.98558 4.17685 8.79929
25 Ar 8.85957 8.90976 -0.106467
26 Ar 8.88588 9.02386 4.58477
27 Ar 8.86828 9.02796 8.82246
28 Ar -0.056928 2.25271 2.05103
29 Ar 0.114514 1.97173 6.8338
30 Ar 0.0931644 2.13508 11.1838
31 Ar 0.0456635 6.76906 2.09454
32 Ar -0.0719613 6.66208 6.35904
33 Ar 0.0119157 6.93079 11.0958
34 Ar 0.0365364 11.1488 2.34198
35 Ar -0.016122 11.1168 6.5839
36 Ar -0.12858 11.0923 11.2889
37 Ar 4.37603 2.07671 2.35187
38 Ar 4.22703 2.14542 6.49086
39 Ar 4.48071 2.26591 11.1624
40 Ar 4.45276 6.54639 2.2712
41 Ar 4.44545 6.53514 6.67367
42 Ar 4.59773 6.67825 11.0882
43 Ar 4.6048 11.1092 2.25559
44 Ar 4.49581 11.1144 6.78328
45 Ar 4.48845 11.1786 10.966
46 Ar 9.0427 2.27254 2.07532
47 Ar 9.07006 2.09349 6.55708
48 Ar 8.75008 2.2797 11.1724
49 Ar 8.79784 6.57259 2.33175
50 Ar 8.81248 6.40105 6.59949
51 Ar 8.97007 6.73445 10.9279
52 Ar 8.99033 11.0425 2.281
53 Ar 8.85796 11.2651 6.73308
54 Ar 8.79688 11.1608 11.109
55 Ar 2.2134 0.135555 2.38489
56 Ar 2.17001 -0.130098 6.61742
57 Ar 2.32685 0.0879058 11.192
58 Ar 2.15431 4.51962 2.14644
59 Ar 2.21876 4.42218 6.63402
60 Ar 2.23336 4.64312 10.8309
61 Ar 2.37813 8.89015 2.18873
62 Ar 2.19637 8.93729 6.60844
63 Ar 2.22665 8.9065 11.0113
64 Ar 6.83021 0.00177691 2.44748
65 Ar 6.71097 0.00536373 6.73968
66 Ar 6.73069 0.0274059 11.1219
67 Ar 6.63743 4.1694 2.27909
68 Ar 6.66805 4.42128 6.82857
69 Ar 6.65237 4.45501 11.0093
70 Ar 6.66713 8.95581 2.34239
71 Ar 6.75595 8.80371 6.8391
72 Ar 6.71681 8.97286 11.1031
73 Ar 11.1484 -0.151834 2.07979
74 Ar 11.2442 0.048714 6.78386
75 Ar 11.0045 0.0618062 11.1771
76 Ar 11.2443 4.45498 2.2209
77 Ar 11.2724 4.3381 6.5829
78 Ar 11.3433 4.43674 11.0068
79 Ar 11.0694 8.7979 2.09429
80 Ar 11.2179 8.7978 6.76297
81 Ar 11.2344 8.94206 11.1327
82 Ar 2.29846 2.40221 0.067522
83 Ar 1.94622 2.23604 4.4021
84 Ar 2.06604 2.06589 8.91055
85 Ar 2.20062 6.75776 -0.0771278
86 Ar 2.42543 6.65255 4.40885
87 Ar 2.18527 6.80911 8.73145
88 Ar 2.25065 11.3529 0.202044
89 Ar 2.19137 11.2335 4.48072
90 Ar 2.17925 11.2501 9.00053
91 Ar 6.68852 2.26257 0.0439844
92 Ar 6.59849 2.06744 4.62431
93 Ar 6.6583 2.14728 8.99897
94 Ar 6.65185 6.51008 0.245282
95 Ar 6.67562 6.80537 4.66894
96 Ar 6.55807 6.62112 9.00352
97 Ar 6.71985 11.3036 0.247698
98 Ar 6.54013 11.0798 4.57461
99 Ar 6.62443 11.2195 8.85392
100 Ar 11.2393 2.32576 -0.257441
101 Ar 11.2162 2.17426 4.3747
102 Ar 11.3027 2.03369 9.09241
103 Ar 11.0074 6.65342 -0.00904834
104 Ar 11.036 6.69535 4.43929
105 Ar 11.0774 6.5785 8.7067
106 Ar 11.0098 11.0507 0.0472206
107 Ar 11.0927 11.0493 4.51918
108 Ar 11.0723 11.1024 8.92254
ITEM: TIMESTEP
88060
ITEM: NUMBER OF ATOMS
108
ITEM: BOX BOUNDS pp pp pp
0.0000000000000000e+00 1.3349999400000000e+01
0.0000000000000000e+00 1.3349999400000000e+01
0.0000000000000000e+00 1.3349999400000000e+01
ITEM: ATOMS id element xu yu zu
1 Ar 0.0734533 -0.00906381 0.0832282
2 Ar -0.128578 0.133193 4.47492
3 Ar -0.226156 -0.200974 8.93724
4 Ar 0.134139 4.44875 -0.0480638
5 Ar -0.0768975 4.52584 4.38667
6 Ar -0.0935049 4.67784 8.81884
7 Ar 0.159912 8.99451 0.0336995
8 Ar 0.0394329 8.96604 4.36432
9 Ar -0.1576 8.977 8.802
10 Ar 4.46808 0.199101 0.106702
11 Ar 4.33952 -0.0109313 4.41447
12 Ar 4.39115 0.00576588 8.84967
13 Ar 4.29811 4.60534 -0.0510543
14 Ar 4.53752 4.31518 4.53568
15 Ar 4.31172 4.32769 8.81571
16 Ar 4.59114 9.03857 -0.0943963
17 Ar 4.34816 8.88224 4.59088
18 Ar 4.57032 8.95471 8.82636
19 Ar 8.8847 0.0176631 -0.113413
20 Ar 8.88844 -0.130372 4.58057
21 Ar 8.90743 0.148192 8.96943
22 Ar 8.91363 4.45294 -0.0505246
23 Ar 8.92145 4.33376 4.40184
24 Ar 8.9917 4.19947 8.79434
25 Ar 8.87303 8.89451 -0.0882845
26 Ar 8.8855 9.02519 4.59636
27 Ar 8.88859 9.03259 8.8376
28 Ar -0.0596222 2.2814 2.02335
29 Ar 0.107161 1.97304 6.83691
30 Ar 0.110561 2.13033 11.2003
31 Ar 0.0237716 6.77488 2.09733
32 Ar -0.0772764 6.66086 6.34787
33 Ar -0.00985255 6.93264 11.0918
34 Ar 0.0447404 11.1371 2.33803
35 Ar -0.0244955 11.1262 6.61168
36 Ar -0.115881 11.0825 11.2853
37 Ar 4.37893 2.06805 2.36413
38 Ar 4.23136 2.151 6.50419
39 Ar 4.46594 2.27172 11.1684
40 Ar 4.43307 6.54116 2.2512
41 Ar 4.452 6.5445 6.65885
42 Ar 4.6003 6.68074 11.0692
43 Ar 4.58819 11.0921 2.27672
44 Ar 4.50192 11.1154 6.76515
45 Ar 4.47025 11.1741 10.9751
46 Ar 9.03972 2.2555 2.08012
47 Ar 9.06683 2.08217 6.58071
48 Ar 8.75668 2.2866 11.1466
49 Ar 8.80954 6.582 2.34271
50 Ar 8.83373 6.40894 6.58464
51 Ar 8.96424 6.73971 10.9074
52 Ar 8.98227 11.031 2.26521
53 Ar 8.86755 11.2622 6.73607
54 Ar 8.80248 11.1696 11.1188
55 Ar 2.21033 0.139755 2.4011
56 Ar 2.17695 -0.100584 6.60674
57 Ar 2.31568 0.0802687 11.1812
58 Ar 2.16506 4.52722 2.15111
59 Ar 2.21062 4.40601 6.63343
60 Ar 2.23285 4.64332 10.8415
61 Ar 2.39671 8.8646 2.18055
62 Ar 2.20462 8.95354 6.61109
63 Ar 2.22846 8.89726 10.9978
64 Ar 6.82154 -0.0136799 2.44747
65 Ar 6.69959 -0.00577367 6.75664
66 Ar 6.72153 0.00749568 11.1316
67 Ar 6.63106 4.1971 2.29036
68 Ar 6.67404 4.42666 6.83663
69 Ar 6.64169 4.46351 11.0035
70 Ar 6.62537 8.97218 2.34404
71 Ar 6.75075 8.79651 6.8284
72 Ar 6.71192 8.98528 11.0977
73 Ar 11.1433 -0.143455 2.09313
74 Ar 11.2435 0.0312216 6.78724
75 Ar 11.0078 0.037304 11.1921
76 Ar 11.2498 4.46362 2.21529
77 Ar 11.2633 4.32674 6.57956
78 Ar 11.3282 4.44169 10.99
79 Ar 11.0597 8.78664 2.0925
80 Ar 11.2205 8.78469 6.76576
81 Ar 11.2119 8.9357 11.1227
82 Ar 2.29314 2.41436 0.0771491
83 Ar 1.95845 2.25794 4.38351
84 Ar 2.08555 2.06517 8.90138
85 Ar 2.20871 6.7504 -0.095945
86 Ar 2.41933 6.64136 4.4039
87 Ar 2.19564 6.79915 8.73363
88 Ar 2.24178 11.3684 0.194615
89 Ar 2.19739 11.2497 4.49331
90 Ar 2.18659 11.2457 8.99303
91 Ar 6.70635 2.25314 0.0523856
92 Ar 6.61275 2.08748 4.60587
93 Ar 6.66111 2.15979 8.98185
94 Ar 6.67837 6.53011 0.250455
95 Ar 6.68436 6.81631 4.66754
96 Ar 6.54837 6.59857 8.98913
97 Ar 6.71496 11.2938 0.236662
98 Ar 6.52986 11.069 4.58085
99 Ar 6.62701 11.235 8.85796
100 Ar 11.2201 2.3286 -0.254739
101 Ar 11.2051 2.16936 4.37838
102 Ar 11.3102 2.02505 9.09466
103 Ar 11.0065 6.66565 -0.00509528
104 Ar 11.0246 6.68615 4.45658
105 Ar 11.1088 6.57532 8.71291
106 Ar 11.0203 11.0379 0.0333211
107 Ar 11.0932 11.0555 4.52892
108 Ar 11.0861 11.1053 8.91613
ITEM: TIMESTEP
88070
ITEM: NUMBER OF ATOMS
108
ITEM: BOX BOUNDS pp pp pp
0.0000000000000000e+00 1.3349999400000000e+01
0.0000000000000000e+00 1.3349999400000000e+01
0.0000000000000000e+00 1.3349999400000000e+01
ITEM: ATOMS id element xu yu zu
1 Ar 0.0820378 -0.0214149 0.107777
2 Ar -0.113599 0.128362 4.46684
3 Ar -0.215564 -0.19386 8.91281
4 Ar 0.14264 4.44276 -0.0750607
5 Ar -0.067098 4.54274 4.40759
6 Ar -0.105108 4.66173 8.84355
7 Ar 0.166053 8.99239 0.0320832
8 Ar 0.0185823 8.96566 4.35433
9 Ar -0.160257 8.98511 8.80425
10 Ar 4.48551 0.187744 0.0852529
11 Ar 4.34601 -0.00707371 4.40688
12 Ar 4.38404 0.0168201 8.86439
13 Ar 4.29923 4.61909 -0.0569533
14 Ar 4.52891 4.333 4.52172
15 Ar 4.30501 4.33452 8.8106
16 Ar 4.5897 9.0304 -0.0856501
17 Ar 4.36266 8.85444 4.59249
18 Ar 4.57287 8.97124 8.83129
19 Ar 8.87811 0.00714768 -0.112588
20 Ar 8.89085 -0.140173 4.58326
21 Ar 8.91781 0.143382 8.99805
22 Ar 8.91952 4.43434 -0.0409763
23 Ar 8.89537 4.33723 4.41628
24 Ar 8.99858 4.22367 8.79048
25 Ar 8.88464 8.8782 -0.0692209
26 Ar 8.88541 9.02463 4.60751
27 Ar 8.90966 9.03501 8.85352
28 Ar -0.062519 2.30901 1.99771
29 Ar 0.0976721 1.97927 6.83832
30 Ar 0.129139 2.12664 11.2159
31 Ar 0.00179665 6.77999 2.10185
32 Ar -0.0793525 6.66064 6.34028
33 Ar -0.0319384 6.93092 11.0879
34 Ar 0.0520798 11.1253 2.33289
35 Ar -0.0328634 11.1353 6.63992
36 Ar -0.100633 11.0749 11.2801
37 Ar 4.38349 2.06385 2.37563
38 Ar 4.23716 2.15597 6.52079
39 Ar 4.45057 2.27781 11.1738
40 Ar 4.41545 6.53764 2.23163
41 Ar 4.45825 6.55541 6.6453
42 Ar 4.59979 6.68469 11.0518
43 Ar 4.56801 11.0768 2.29811
44 Ar 4.50601 11.1169 6.74574
45 Ar 4.45188 11.1697 10.9879
46 Ar 9.03703 2.23681 2.08645
47 Ar 9.06213 2.07274 6.60555
48 Ar 8.76583 2.29397 11.121
49 Ar 8.82145 6.59242 2.35345
50 Ar 8.85737 6.41958 6.5726
51 Ar 8.95785 6.7434 10.8883
52 Ar 8.9728 11.0202 2.25001
53 Ar 8.87829 11.2574 6.74002
54 Ar 8.80941 11.1776 11.1284
55 Ar 2.20519 0.141517 2.4143
56 Ar 2.18448 -0.0707653 6.59773
57 Ar 2.30367 0.0710987 11.1711
58 Ar 2.17656 4.53442 2.15863
59 Ar 2.20017 4.39023 6.63288
60 Ar 2.23072 4.6419 10.8552
61 Ar 2.41477 8.84015 2.1728
62 Ar 2.21204 8.96983 6.61535
63 Ar 2.2318 8.88968 10.9852
64 Ar 6.81223 -0.0281502 2.44549
65 Ar 6.68662 -0.015546 6.77292
66 Ar 6.70958 -0.0126784 11.142
67 Ar 6.62463 4.22683 2.30232
68 Ar 6.67943 4.42932 6.8429
69 Ar 6.63176 4.47182 11.0002
70 Ar 6.58483 8.98581 2.34495
71 Ar 6.74505 8.79083 6.81659
72 Ar 6.70698 8.99682 11.0927
73 Ar 11.1372 -0.132666 2.10809
74 Ar 11.2394 0.0120964 6.78802
75 Ar 11.013 0.0101367 11.208
76 Ar 11.2532 4.47314 2.2083
77 Ar 11.2527 4.31421 6.57705
78 Ar 11.3105 4.44825 10.9749
79 Ar 11.0506 8.77634 2.09321
80 Ar 11.2194 8.77365 6.76508
81 Ar 11.186 8.9287 11.1128
82 Ar 2.28797 2.42357 0.0849657
83 Ar 1.97242 2.28189 4.36587
84 Ar 2.10691 2.06609 8.89322
85 Ar 2.21806 6.74352 -0.11512
86 Ar 2.4096 6.62949 4.39959
87 Ar 2.20591 6.7893 8.73586
88 Ar 2.23512 11.3809 0.185188
89 Ar 2.20403 11.2631 4.50419
90 Ar 2.19274 11.2395 8.98427
91 Ar 6.7228 2.24361 0.0603686
92 Ar 6.62917 2.109 4.58685
93 Ar 6.66221 2.17301 8.96207
94 Ar 6.70512 6.55205 0.252243
95 Ar 6.69195 6.82466 4.66166
96 Ar 6.54189 6.57685 8.97172
97 Ar 6.70992 11.2828 0.222066
98 Ar 6.5216 11.0588 4.58726
99 Ar 6.63155 11.2498 8.86316
100 Ar 11.1989 2.33078 -0.248843
101 Ar 11.1925 2.16505 4.38159
102 Ar 11.3157 2.02137 9.09469
103 Ar 11.0071 6.67703 -0.00261474
104 Ar 11.0129 6.67767 4.47229
105 Ar 11.1386 6.57386 8.72059
106 Ar 11.0323 11.0259 0.0184605
107 Ar 11.0947 11.0625 4.53806
108 Ar 11.0981 11.1083 8.90996
ITEM: TIMESTEP
88080
ITEM: NUMBER OF ATOMS
108
ITEM: BOX BOUNDS pp pp pp
0.0000000000000000e+00 1.3349999400000000e+01
0.0000000000000000e+00 1.3349999400000000e+01
0.0000000000000000e+00 1.3349999400000000e+01
ITEM: ATOMS id element xu yu zu
1 Ar 0.0889407 -0.0330513 0.130761
2 Ar -0.0980958 0.120379 4.45732
3 Ar -0.199037 -0.186901 8.89192
4 Ar 0.148942 4.43997 -0.103958
5 Ar -0.0555622 4.55769 4.42676
6 Ar -0.112371 4.64232 8.86691
7 Ar 0.170936 8.99044 0.0310422
8 Ar -0.00206546 8.96377 4.34446
9 Ar -0.158581 8.99227 8.80797
10 Ar 4.50304 0.173648 0.0633645
11 Ar 4.35493 -0.00447763 4.40185
12 Ar 4.37761 0.0294184 8.87921
13 Ar 4.30326 4.63036 -0.0633226
14 Ar 4.51966 4.35215 4.50646
15 Ar 4.29978 4.34106 8.80546
16 Ar 4.58675 9.02094 -0.0766848
17 Ar 4.37869 8.82778 4.59282
18 Ar 4.57285 8.98632 8.83705
19 Ar 8.87199 -0.00264036 -0.108624
20 Ar 8.89473 -0.148442 4.58326
21 Ar 8.92842 0.136599 9.0254
22 Ar 8.92548 4.41703 -0.0319918
23 Ar 8.86881 4.3397 4.43077
24 Ar 9.00612 4.24931 8.78766
25 Ar 8.894 8.86115 -0.0497385
26 Ar 8.88565 9.02239 4.61786
27 Ar 8.93089 9.03532 8.86971
28 Ar -0.0656349 2.33519 1.97473
29 Ar 0.0861407 1.99036 6.83781
30 Ar 0.148272 2.1239 11.2301
31 Ar -0.0197266 6.78414 2.10786
32 Ar -0.0780156 6.66161 6.33681
33 Ar -0.0539591 6.92584 11.0841
34 Ar 0.0584663 11.1136 2.3267
35 Ar -0.0407937 11.1438 6.66784
36 Ar -0.0830713 11.0693 11.2732
37 Ar 4.38981 2.0641 2.38571
38 Ar 4.24481 2.1605 6.53995
39 Ar 4.43496 2.28417 11.1787
40 Ar 4.40037 6.53595 2.21262