ITEM: TIMESTEP
80000
ITEM: NUMBER OF ATOMS
108
ITEM: BOX BOUNDS pp pp pp
0.0000000000000000e+00 1.3349999400000000e+01
0.0000000000000000e+00 1.3349999400000000e+01
0.0000000000000000e+00 1.3349999400000000e+01
ITEM: ATOMS id element xu yu zu
1 Ar 0.036439 -0.118395 0.061124
2 Ar -0.00779913 -0.091578 4.487
3 Ar 0.112746 0.016667 8.85183
4 Ar -0.141762 4.22175 -0.146702
5 Ar 0.2778 4.38802 4.33637
6 Ar 0.0861016 4.49207 8.96083
7 Ar -0.0637529 8.87773 -0.18084
8 Ar -0.0947527 8.90212 4.48082
9 Ar 0.0922876 8.63079 8.90774
10 Ar 4.4076 -0.0859758 0.130271
11 Ar 4.5941 0.121488 4.4071
12 Ar 4.5548 0.118401 8.94363
13 Ar 4.53641 4.29038 0.053603
14 Ar 4.39378 4.63412 4.47339
15 Ar 4.4013 4.67769 9.07454
16 Ar 4.37588 8.76796 -0.0583572
17 Ar 4.54222 9.02434 4.34255
18 Ar 4.45648 8.79605 8.95106
19 Ar 8.91959 0.0573465 -0.160779
20 Ar 8.75133 -0.0324621 4.32661
21 Ar 8.89171 -0.0391358 8.98064
22 Ar 8.94352 4.33964 0.153313
23 Ar 8.85996 4.60887 4.5713
24 Ar 9.06964 4.49502 8.83737
25 Ar 8.95494 8.86015 0.138747
26 Ar 9.01774 8.71231 4.30532
27 Ar 9.19694 8.99652 8.96047
28 Ar -0.00216228 2.28988 2.39539
29 Ar 0.033743 2.3308 6.75149
30 Ar 0.0729862 2.09369 11.1844
31 Ar -0.0141211 6.55269 2.05566
32 Ar 0.0777759 6.66168 6.73542
33 Ar 0.0958811 6.51291 11.1794
34 Ar 0.219644 11.2335 2.35556
35 Ar -0.0647012 11.1103 6.65896
36 Ar -0.0722227 11.0787 10.9933
37 Ar 4.54012 2.14454 2.46941
38 Ar 4.35023 2.49269 6.67667
39 Ar 4.47717 2.36343 11.22
40 Ar 4.51036 6.79328 2.19579
41 Ar 4.22752 6.82331 6.78463
42 Ar 4.4996 6.66314 11.222
43 Ar 4.15004 11.0827 2.04526
44 Ar 4.43355 11.191 6.83749
45 Ar 4.36975 10.9633 10.8774
46 Ar 8.9083 2.22762 2.22867
47 Ar 8.80244 2.18282 6.74917
48 Ar 8.5721 2.2893 10.9228
49 Ar 8.86831 6.65962 2.2333
50 Ar 8.85818 6.91316 6.69822
51 Ar 9.01095 6.82302 11.1163
52 Ar 8.98865 10.9698 2.03492
53 Ar 8.73176 11.0738 6.76235
54 Ar 8.96579 11.0203 11.2091
55 Ar 2.30864 -0.0487032 2.33915
56 Ar 2.26446 -0.145419 6.66232
57 Ar 2.22765 -0.108011 11.2576
58 Ar 2.2793 4.51675 2.08549
59 Ar 2.2209 4.45564 6.67947
60 Ar 2.16618 4.51549 11.2924
61 Ar 2.17361 8.89827 2.26795
62 Ar 2.28234 8.91885 6.74701
63 Ar 2.18677 8.79161 11.125
64 Ar 6.46014 -0.268413 2.09187
65 Ar 6.58042 -0.0466847 6.66386
66 Ar 6.66291 -0.0725791 11.1764
67 Ar 6.68603 4.30062 2.19394
68 Ar 6.42853 4.47708 6.74952
69 Ar 6.64266 4.67081 11.2642
70 Ar 6.60598 8.93875 1.94133
71 Ar 6.42058 8.86171 6.70608
72 Ar 6.7128 8.88789 11.1114
73 Ar 11.1948 -0.00373269 2.16287
74 Ar 11.0763 0.138397 6.78809
75 Ar 11.0097 0.184739 11.0335
76 Ar 11.0929 4.33296 2.32295
77 Ar 11.2469 4.73608 6.51413
78 Ar 10.9825 4.48277 11.2731
79 Ar 11.3213 9.04525 2.25581
80 Ar 11.2351 8.93228 6.64286
81 Ar 11.1538 8.86406 11.0256
82 Ar 2.4286 2.32068 0.0429054
83 Ar 2.27293 2.21957 4.31456
84 Ar 2.2911 2.23958 8.89981
85 Ar 2.23364 6.66034 -0.090559
86 Ar 2.21291 6.64049 4.22109
87 Ar 2.15062 6.61673 8.86629
88 Ar 2.08705 11.0037 -0.176404
89 Ar 2.46563 11.2116 4.52942
90 Ar 2.21219 11.0198 8.77439
91 Ar 6.64598 2.12454 -0.0324401
92 Ar 6.61612 2.22652 4.60982
93 Ar 6.41216 2.38599 8.79008
94 Ar 6.76031 6.73061 0.0446559
95 Ar 6.5695 6.71775 4.36863
96 Ar 6.76675 6.80726 8.89258
97 Ar 6.42097 11.0646 -0.105426
98 Ar 6.80414 10.7596 4.47406
99 Ar 6.82065 11.1284 9.09754
100 Ar 11.1249 2.18076 0.167256
101 Ar 11.0011 2.17914 4.46664
102 Ar 11.2461 2.39591 8.66254
103 Ar 10.9377 6.60961 -0.0224185
104 Ar 11.0814 6.65034 4.31872
105 Ar 11.1501 6.71834 8.95585
106 Ar 11.3043 11.2576 0.0951654
107 Ar 11.0385 11.2551 4.5232
108 Ar 11.2945 11.1655 8.90619
ITEM: TIMESTEP
80010
ITEM: NUMBER OF ATOMS
108
ITEM: BOX BOUNDS pp pp pp
0.0000000000000000e+00 1.3349999400000000e+01
0.0000000000000000e+00 1.3349999400000000e+01
0.0000000000000000e+00 1.3349999400000000e+01
ITEM: ATOMS id element xu yu zu
1 Ar 0.013032 -0.112565 0.0793001
2 Ar 0.000487982 -0.0961163 4.48875
3 Ar 0.116222 0.0144459 8.84072
4 Ar -0.148043 4.21225 -0.146622
5 Ar 0.264162 4.40238 4.34371
6 Ar 0.0762455 4.47868 8.96904
7 Ar -0.0788171 8.87223 -0.200555
8 Ar -0.120905 8.89673 4.48651
9 Ar 0.0883864 8.65178 8.91497
10 Ar 4.4131 -0.0830892 0.131533
11 Ar 4.59895 0.120188 4.40633
12 Ar 4.52913 0.117234 8.97355
13 Ar 4.54949 4.28852 0.0635058
14 Ar 4.40628 4.61971 4.45914
15 Ar 4.39072 4.68353 9.07894
16 Ar 4.37962 8.76822 -0.036095
17 Ar 4.53824 9.01953 4.35827
18 Ar 4.47432 8.78447 8.94719
19 Ar 8.89446 0.0734983 -0.145357
20 Ar 8.73951 -0.0300966 4.34472
21 Ar 8.90023 -0.0478887 8.97455
22 Ar 8.94112 4.3474 0.144868
23 Ar 8.85817 4.60685 4.57573
24 Ar 9.0654 4.5095 8.84884
25 Ar 8.95933 8.83477 0.146791
26 Ar 9.01375 8.69179 4.29707
27 Ar 9.21265 8.99347 8.96145
28 Ar 0.0143362 2.27402 2.37753
29 Ar 0.0312907 2.3467 6.753
30 Ar 0.0743045 2.08483 11.1733
31 Ar -0.0048569 6.57979 2.04465
32 Ar 0.092523 6.67989 6.7283
33 Ar 0.0998661 6.52405 11.17
34 Ar 0.214406 11.2409 2.36676
35 Ar -0.0544926 11.1261 6.66754
36 Ar -0.0561695 11.0786 11.019
37 Ar 4.51607 2.1398 2.45253
38 Ar 4.33932 2.47665 6.68053
39 Ar 4.49449 2.34389 11.2023
40 Ar 4.50439 6.79056 2.19706
41 Ar 4.22359 6.81942 6.78359
42 Ar 4.49458 6.66377 11.2042
43 Ar 4.1529 11.0758 2.04475
44 Ar 4.47533 11.197 6.82629
45 Ar 4.37092 10.9485 10.865
46 Ar 8.91363 2.23501 2.2347
47 Ar 8.80053 2.19835 6.7405
48 Ar 8.60735 2.3055 10.9228
49 Ar 8.87566 6.65481 2.24203
50 Ar 8.86301 6.92843 6.70149
51 Ar 8.99656 6.83402 11.1165
52 Ar 8.98573 10.9683 2.01544
53 Ar 8.73236 11.068 6.78043
54 Ar 8.97646 11.0236 11.2293
55 Ar 2.31016 -0.0547744 2.30123
56 Ar 2.2637 -0.143799 6.66499
57 Ar 2.22081 -0.1074 11.2423
58 Ar 2.26666 4.49868 2.06103
59 Ar 2.24497 4.45987 6.64839
60 Ar 2.17461 4.49961 11.2953
61 Ar 2.17112 8.91417 2.25991
62 Ar 2.28024 8.92182 6.73272
63 Ar 2.19403 8.76384 11.1241
64 Ar 6.48837 -0.271246 2.10117
65 Ar 6.57783 -0.0472346 6.67114
66 Ar 6.66665 -0.0850423 11.1815
67 Ar 6.67814 4.29172 2.19057
68 Ar 6.41765 4.47293 6.7475
69 Ar 6.64446 4.64823 11.2689
70 Ar 6.61103 8.9505 1.93767
71 Ar 6.42881 8.8548 6.70603
72 Ar 6.71081 8.91385 11.1257
73 Ar 11.1755 0.0131857 2.17118
74 Ar 11.061 0.131643 6.78637
75 Ar 11.0036 0.212977 11.0316
76 Ar 11.112 4.34298 2.29993
77 Ar 11.2677 4.73051 6.52048
78 Ar 10.9645 4.48437 11.286
79 Ar 11.3023 9.04058 2.25481
80 Ar 11.2376 8.94475 6.63853
81 Ar 11.1488 8.85118 11.0401
82 Ar 2.42001 2.33647 0.0599269
83 Ar 2.26816 2.22455 4.3254
84 Ar 2.28552 2.23869 8.90495
85 Ar 2.22597 6.65478 -0.0931343
86 Ar 2.21781 6.66454 4.24518
87 Ar 2.14758 6.61905 8.8667
88 Ar 2.08806 10.9865 -0.145997
89 Ar 2.47232 11.2124 4.5454
90 Ar 2.19934 11.0188 8.77275
91 Ar 6.6377 2.13294 -0.0420631
92 Ar 6.62267 2.24146 4.61819
93 Ar 6.41153 2.35859 8.78109
94 Ar 6.74632 6.73221 0.0428601
95 Ar 6.58467 6.71861 4.3618
96 Ar 6.76576 6.78555 8.88117
97 Ar 6.43397 11.0503 -0.106943
98 Ar 6.81314 10.7903 4.46529
99 Ar 6.82997 11.1296 9.10281
100 Ar 11.1381 2.17342 0.164294
101 Ar 10.9949 2.18012 4.45913
102 Ar 11.2518 2.395 8.64712
103 Ar 10.9271 6.60153 -0.0473019
104 Ar 11.0775 6.64956 4.34249
105 Ar 11.1343 6.71576 8.94882
106 Ar 11.3069 11.2696 0.0821305
107 Ar 11.0213 11.2637 4.49789
108 Ar 11.2951 11.1492 8.93466
ITEM: TIMESTEP
80020
ITEM: NUMBER OF ATOMS
108
ITEM: BOX BOUNDS pp pp pp
0.0000000000000000e+00 1.3349999400000000e+01
0.0000000000000000e+00 1.3349999400000000e+01
0.0000000000000000e+00 1.3349999400000000e+01
ITEM: ATOMS id element xu yu zu
1 Ar -0.00798008 -0.102818 0.0963825
2 Ar 0.00875226 -0.097579 4.49189
3 Ar 0.11889 0.0126174 8.83051
4 Ar -0.152461 4.20547 -0.143104
5 Ar 0.24658 4.41879 4.35292
6 Ar 0.0649977 4.46428 8.97757
7 Ar -0.0940396 8.86584 -0.21715
8 Ar -0.143506 8.89131 4.49166
9 Ar 0.0827274 8.6772 8.92263
10 Ar 4.41662 -0.078146 0.12802
11 Ar 4.60244 0.114163 4.40879
12 Ar 4.50138 0.114222 9.00344
13 Ar 4.5628 4.29109 0.0744781
14 Ar 4.41898 4.60404 4.44348
15 Ar 4.38033 4.68701 9.08183
16 Ar 4.3826 8.77069 -0.0148972
17 Ar 4.53153 9.01279 4.3743
18 Ar 4.49131 8.77343 8.94388
19 Ar 8.86927 0.0884863 -0.127539
20 Ar 8.72774 -0.0283815 4.36321
21 Ar 8.90801 -0.0556273 8.96707
22 Ar 8.93658 4.35553 0.134218
23 Ar 8.85506 4.60265 4.58037
24 Ar 9.05836 4.52449 8.85933
25 Ar 8.96488 8.81004 0.151019
26 Ar 9.00825 8.67573 4.29027
27 Ar 9.22329 8.99047 8.96013
28 Ar 0.0310932 2.25569 2.35674
29 Ar 0.030609 2.36102 6.75057
30 Ar 0.0750202 2.07646 11.1612
31 Ar 0.00306412 6.60769 2.03381
32 Ar 0.107135 6.69815 6.71782
33 Ar 0.0996998 6.53667 11.1609
34 Ar 0.207012 11.2453 2.37722
35 Ar -0.0432778 11.1417 6.67568
36 Ar -0.0389116 11.0796 11.0452
37 Ar 4.49249 2.13792 2.43097
38 Ar 4.32734 2.45573 6.68349
39 Ar 4.51114 2.32216 11.1826
40 Ar 4.49744 6.78541 2.19755
41 Ar 4.22263 6.81211 6.77909
42 Ar 4.48895 6.66538 11.1866
43 Ar 4.15955 11.0671 2.04618
44 Ar 4.51895 11.2018 6.81457
45 Ar 4.3718 10.9363 10.8561
46 Ar 8.91665 2.24015 2.24203
47 Ar 8.79879 2.21498 6.73174
48 Ar 8.64491 2.32213 10.9236
49 Ar 8.88279 6.64838 2.24985
50 Ar 8.86795 6.94158 6.70479
51 Ar 8.97874 6.84275 11.1162
52 Ar 8.98105 10.9712 1.99876
53 Ar 8.73559 11.0621 6.79694
54 Ar 8.98817 11.028 11.2508
55 Ar 2.30989 -0.0578228 2.26215
56 Ar 2.2632 -0.137564 6.66798
57 Ar 2.21532 -0.105482 11.2253
58 Ar 2.25452 4.4804 2.03746
59 Ar 2.26803 4.46527 6.61772
60 Ar 2.18524 4.48105 11.2955
61 Ar 2.16703 8.92884 2.25098
62 Ar 2.2763 8.92557 6.71517
63 Ar 2.20171 8.73736 11.1217
64 Ar 6.52132 -0.273046 2.11289
65 Ar 6.57679 -0.0473827 6.67931
66 Ar 6.66891 -0.0965475 11.186
67 Ar 6.67016 4.28491 2.18904
68 Ar 6.41084 4.47291 6.74469
69 Ar 6.64897 4.62392 11.2714
70 Ar 6.61645 8.96306 1.93885
71 Ar 6.4404 8.84845 6.70636
72 Ar 6.70923 8.93846 11.1406
73 Ar 11.1547 0.029616 2.18225
74 Ar 11.046 0.122173 6.78279
75 Ar 10.9996 0.240476 11.0302
76 Ar 11.1318 4.35508 2.27727
77 Ar 11.2872 4.72159 6.52809
78 Ar 10.9474 4.48306 11.295
79 Ar 11.2833 9.03435 2.25221
80 Ar 11.2381 8.95661 6.63487
81 Ar 11.1461 8.83944 11.0581
82 Ar 2.40798 2.34781 0.0773444
83 Ar 2.26331 2.22864 4.33947
84 Ar 2.2799 2.23798 8.9114
85 Ar 2.21838 6.64946 -0.0923866
86 Ar 2.22237 6.69071 4.2719
87 Ar 2.1465 6.62125 8.8694
88 Ar 2.09037 10.9694 -0.114776
89 Ar 2.47654 11.2111 4.56103
90 Ar 2.18553 11.0189 8.77411
91 Ar 6.6303 2.14113 -0.0500787
92 Ar 6.63132 2.25805 4.62498
93 Ar 6.41428 2.3308 8.7744
94 Ar 6.73219 6.73173 0.0403977
95 Ar 6.60082 6.71961 4.35641
96 Ar 6.76512 6.76218 8.87066
97 Ar 6.44931 11.0364 -0.109443
98 Ar 6.82218 10.8251 4.45461
99 Ar 6.83727 11.1297 9.10531
100 Ar 11.1508 2.16524 0.158211
101 Ar 10.9901 2.18157 4.45332
102 Ar 11.2551 2.39404 8.63655
103 Ar 10.9208 6.59481 -0.0694399
104 Ar 11.0771 6.64914 4.36586
105 Ar 11.1198 6.7109 8.94054
106 Ar 11.3072 11.2787 0.0665513
107 Ar 11.0034 11.2712 4.47254
108 Ar 11.2936 11.1338 8.96175
ITEM: TIMESTEP
80030
ITEM: NUMBER OF ATOMS
108
ITEM: BOX BOUNDS pp pp pp
0.0000000000000000e+00 1.3349999400000000e+01
0.0000000000000000e+00 1.3349999400000000e+01
0.0000000000000000e+00 1.3349999400000000e+01
ITEM: ATOMS id element xu yu zu
1 Ar -0.0260675 -0.0893373 0.112017
2 Ar 0.0168613 -0.0958515 4.49636
3 Ar 0.120444 0.0111929 8.82133
4 Ar -0.154901 4.20165 -0.136655
5 Ar 0.225478 4.43694 4.36324
6 Ar 0.0527564 4.44943 8.98632
7 Ar -0.109126 8.85869 -0.230223
8 Ar -0.162294 8.88617 4.49593
9 Ar 0.0753459 8.70645 8.93048
10 Ar 4.41858 -0.0715008 0.119893
11 Ar 4.6046 0.103926 4.41399
12 Ar 4.47192 0.109094 9.03274
13 Ar 4.57587 4.29791 0.0859075
14 Ar 4.43167 4.58742 4.42639
15 Ar 4.37039 4.68768 9.08298
16 Ar 4.38465 8.77508 0.0047027
17 Ar 4.52266 9.00437 4.3904
18 Ar 4.5072 8.76314 8.94091
19 Ar 8.84451 0.102262 -0.107634
20 Ar 8.71622 -0.02711 4.38202
21 Ar 8.91492 -0.0621339 8.95849
22 Ar 8.92979 4.36374 0.121872
23 Ar 8.85092 4.59641 4.58518
24 Ar 9.04859 4.53964 8.86856
25 Ar 8.9714 8.7863 0.151536
26 Ar 9.00114 8.66475 4.28503
27 Ar 9.22863 8.98764 8.95686
28 Ar 0.0478745 2.23535 2.33378
29 Ar 0.0318774 2.37354 6.74413
30 Ar 0.0751572 2.06876 11.148
31 Ar 0.00958142 6.63607 2.02343
32 Ar 0.121338 6.71617 6.70455
33 Ar 0.0954661 6.55006 11.152
34 Ar 0.197317 11.2468 2.3869
35 Ar -0.0316357 11.1568 6.68314
36 Ar -0.0206471 11.0819 11.0715
37 Ar 4.46985 2.13852 2.40547
38 Ar 4.31467 2.43016 6.68562
39 Ar 4.52667 2.29878 11.1616
40 Ar 4.48955 6.77795 2.1975
41 Ar 4.22471 6.80165 6.77122
42 Ar 4.4831 6.66795 11.1697
43 Ar 4.17022 11.057 2.0498
44 Ar 4.56335 11.2052 6.8028
45 Ar 4.37215 10.927 10.8509
46 Ar 8.91734 2.24334 2.25042
47 Ar 8.79739 2.23258 6.7232
48 Ar 8.68412 2.33862 10.9254
49 Ar 8.88968 6.64006 2.25641
50 Ar 8.87304 6.95232 6.70805
51 Ar 8.95742 6.84911 11.1154
52 Ar 8.97478 10.9783 1.98481
53 Ar 8.74139 11.0562 6.8115
54 Ar 9.00084 11.0336 11.2734
55 Ar 2.30789 -0.0580299 2.2227
56 Ar 2.26328 -0.126919 6.6713
57 Ar 2.21114 -0.102589 11.2072
58 Ar 2.24272 4.46283 2.01584
59 Ar 2.28962 4.47183 6.58803
60 Ar 2.19771 4.46022 11.2934
61 Ar 2.16125 8.94192 2.24159
62 Ar 2.2708 8.93021 6.69492
63 Ar 2.20988 8.71283 11.1179
64 Ar 6.55807 -0.273656 2.12653
65 Ar 6.57743 -0.0468143 6.68846
66 Ar 6.66992 -0.106845 11.1898
67 Ar 6.6624 4.28022 2.18941
68 Ar 6.40787 4.47675 6.74131
69 Ar 6.65586 4.59836 11.2714
70 Ar 6.62219 8.97599 1.94511
71 Ar 6.45533 8.84277 6.7068
72 Ar 6.70816 8.96103 11.1555
73 Ar 11.1327 0.0451973 2.19586
74 Ar 11.0315 0.110067 6.77734
75 Ar 10.9977 0.266807 11.0293
76 Ar 11.1522 4.36908 2.25528
77 Ar 11.3049 4.70957 6.53696
78 Ar 10.9319 4.47886 11.2999
79 Ar 11.2646 9.02667 2.24792
80 Ar 11.2366 8.96802 6.63206
81 Ar 11.1457 8.82892 11.0791
82 Ar 2.39294 2.35423 0.0941818
83 Ar 2.25832 2.23168 4.35631
84 Ar 2.27421 2.23766 8.91893
85 Ar 2.21111 6.64434 -0.088493
86 Ar 2.22659 6.71839 4.30046
87 Ar 2.14703 6.62329 8.87407
88 Ar 2.09379 10.9531 -0.0835667
89 Ar 2.47833 11.2081 4.57588
90 Ar 2.17145 11.02 8.77817
91 Ar 6.62398 2.14892 -0.0564387
92 Ar 6.6415 2.27583 4.6299
93 Ar 6.4205 2.30295 8.76996
94 Ar 6.71804 6.72919 0.0373423
95 Ar 6.6175 6.72069 4.35245
96 Ar 6.76483 6.73753 8.86136
97 Ar 6.46662 11.0235 -0.112677
98 Ar 6.83098 10.8632 4.44233
99 Ar 6.84254 11.1286 9.10513
100 Ar 11.1624 2.15638 0.149167
101 Ar 10.9869 2.1836 4.44925
102 Ar 11.2558 2.39295 8.63088
103 Ar 10.919 6.58949 -0.0884024
104 Ar 11.0803 6.64885 4.38852
105 Ar 11.1071 6.704 8.9312
106 Ar 11.3049 11.2848 0.0488969
107 Ar 10.9851 11.2776 4.44754
108 Ar 11.2903 11.1197 8.98741
ITEM: TIMESTEP
80040
ITEM: NUMBER OF ATOMS
108
ITEM: BOX BOUNDS pp pp pp
0.0000000000000000e+00 1.3349999400000000e+01
0.0000000000000000e+00 1.3349999400000000e+01
0.0000000000000000e+00 1.3349999400000000e+01
ITEM: ATOMS id element xu yu zu
1 Ar -0.0408898 -0.0724913 0.125908
2 Ar 0.0246794 -0.0909197 4.50204
3 Ar 0.12059 0.010205 8.81328
4 Ar -0.155295 4.201 -0.12787
5 Ar 0.201373 4.45646 4.37392
6 Ar 0.0399198 4.43467 8.99522
7 Ar -0.123685 8.85093 -0.239404
8 Ar -0.177114 8.88166 4.49899
9 Ar 0.0663344 8.73883 8.9383
10 Ar 4.41947 -0.0635885 0.107452
11 Ar 4.60552 0.0901243 4.42129
12 Ar 4.44124 0.101614 9.06081
13 Ar 4.58822 4.30866 0.0971509
14 Ar 4.44413 4.57012 4.40793
15 Ar 4.36115 4.68516 9.08219
16 Ar 4.38566 8.78106 0.0222526
17 Ar 4.51226 8.99455 4.4063
18 Ar 4.52181 8.75379 8.93805
19 Ar 8.82068 0.114797 -0.0860219
20 Ar 8.70523 -0.0260166 4.40116
21 Ar 8.92088 -0.067224 8.94911
22 Ar 8.92075 4.3718 0.108368
23 Ar 8.84608 4.58837 4.59012
24 Ar 9.0362 4.55461 8.87628
25 Ar 8.97863 8.76392 0.1486
26 Ar 8.99241 8.65924 4.28144
27 Ar 9.22864 8.985 8.9521
28 Ar 0.0644111 2.21352 2.30947
29 Ar 0.0351624 2.38403 6.7338
30 Ar 0.0747476 2.06196 11.1344
31 Ar 0.0146725 6.66461 2.01382
32 Ar 0.134842 6.73365 6.68918
33 Ar 0.0873653 6.56349 11.1434
34 Ar 0.185233 11.2453 2.3958
35 Ar -0.0201126 11.1711 6.68968
36 Ar -0.0015846 11.0855 11.0977
37 Ar 4.44857 2.14106 2.37692
38 Ar 4.30181 2.40036 6.68703
39 Ar 4.5407 2.27435 11.1402
40 Ar 4.48075 6.76838 2.19717
41 Ar 4.22983 6.78845 6.76022
42 Ar 4.47743 6.67136 11.1541
43 Ar 4.18507 11.0462 2.0558
44 Ar 4.60747 11.2071 6.79136
45 Ar 4.37173 10.9203 10.8495
46 Ar 8.91576 2.24497 2.25961
47 Ar 8.79652 2.251 6.71521
48 Ar 8.72429 2.35443 10.9279
49 Ar 8.89632 6.62968 2.26145
50 Ar 8.87832 6.9604 6.71117
51 Ar 8.93277 6.85306 11.1138
52 Ar 8.96719 10.9892 1.97343
53 Ar 8.74967 11.0503 6.82372
54 Ar 9.01429 11.0404 11.2968
55 Ar 2.30425 -0.055745 2.18369
56 Ar 2.26425 -0.1122 6.67499
57 Ar 2.20816 -0.0990129 11.1889
58 Ar 2.23111 4.44682 1.99718
59 Ar 2.30937 4.47945 6.55981
60 Ar 2.21162 4.4376 11.2891
61 Ar 2.15382 8.95308 2.23219
62 Ar 2.26408 8.93581 6.67266
63 Ar 2.21853 8.69084 11.1129
64 Ar 6.59759 -0.272878 2.14158
65 Ar 6.5799 -0.0452041 6.6986
66 Ar 6.66991 -0.115745 11.1929
67 Ar 6.65519 4.27765 2.1917
68 Ar 6.40841 4.48402 6.73759
69 Ar 6.66474 4.572 11.269
70 Ar 6.6282 8.98879 1.95649
71 Ar 6.47351 8.83784 6.70712
72 Ar 6.70763 8.98093 11.17
73 Ar 11.1096 0.0596047 2.2117
74 Ar 11.0178 0.0955011 6.77003
75 Ar 10.9977 0.291486 11.029
76 Ar 11.1727 4.38472 2.23424
77 Ar 11.3208 4.69478 6.54704
78 Ar 10.9182 4.47191 11.3003
79 Ar 11.2465 9.01765 2.24194
80 Ar 11.233 8.97912 6.63022
81 Ar 11.147 8.81966 11.1024
82 Ar 2.3754 2.35539 0.10942
83 Ar 2.25312 2.23358 4.37533
84 Ar 2.26844 2.23794 8.92725
85 Ar 2.20435 6.63938 -0.0817739
86 Ar 2.23047 6.74697 4.33001
87 Ar 2.14878 6.62513 8.8803
88 Ar 2.0981 10.9378 -0.0531589
89 Ar 2.47769 11.2034 4.58957
90 Ar 2.15774 11.0218 8.78463
91 Ar 6.6189 2.15618 -0.0611252
92 Ar 6.65259 2.29431 4.63271
93 Ar 6.43016 2.27538 8.76767
94 Ar 6.70397 6.7247 0.0338027
95 Ar 6.63423 6.72175 4.34985
96 Ar 6.76478 6.71202 8.85354
97 Ar 6.48553 11.0123 -0.116318
98 Ar 6.83927 10.9035 4.42883
99 Ar 6.84583 11.1264 9.10248
100 Ar 11.1725 2.14708 0.13742
101 Ar 10.9855 2.18632 4.44691
102 Ar 11.2535 2.39158 8.62996
103 Ar 10.9217 6.58553 -0.103908
104 Ar 11.0867 6.64855 4.41022
105 Ar 11.0968 6.69537 8.921
106 Ar 11.3 11.2882 0.0296934
107 Ar 10.9666 11.2827 4.42324
108 Ar 11.2857 11.1072 9.01158
ITEM: TIMESTEP
80050
ITEM: NUMBER OF ATOMS
108
ITEM: BOX BOUNDS pp pp pp
0.0000000000000000e+00 1.3349999400000000e+01
0.0000000000000000e+00 1.3349999400000000e+01
0.0000000000000000e+00 1.3349999400000000e+01
ITEM: ATOMS id element xu yu zu
1 Ar -0.0523077 -0.0528471 0.137798
2 Ar 0.0320705 -0.0828714 4.50874
3 Ar 0.119059 0.00970108 8.8064
4 Ar -0.153624 4.2036 -0.117398
5 Ar 0.174862 4.477 4.38428
6 Ar 0.026876 4.42049 9.00418
7 Ar -0.137243 8.84277 -0.244381
8 Ar -0.187922 8.87812 4.50055
9 Ar 0.055834 8.77355 8.94583
10 Ar 4.41976 -0.0548919 0.0910906
11 Ar 4.60531 0.07348 4.43002
12 Ar 4.40989 0.091593 9.08694
13 Ar 4.59931 4.32296 0.107572
14 Ar 4.45613 4.5524 4.38823
15 Ar 4.35286 4.67919 9.0793
16 Ar 4.38563 8.78833 0.0374009
17 Ar 4.50098 8.9836 4.42179
18 Ar 4.53499 8.74555 8.93501
19 Ar 8.79825 0.12608 -0.0631499
20 Ar 8.69508 -0.0247815 4.42067
21 Ar 8.92584 -0.0707538 8.9393
22 Ar 8.90956 4.37951 0.0942408
23 Ar 8.84093 4.57883 4.5951
24 Ar 9.02132 4.56904 8.88226
25 Ar 8.98622 8.74329 0.142592
26 Ar 8.98217 8.65943 4.27951
27 Ar 9.22342 8.98254 8.94644
28 Ar 0.0803899 2.19073 2.28466
29 Ar 0.0404092 2.39232 6.71985
30 Ar 0.0738323 2.0563 11.1205
31 Ar 0.0183384 6.69296 2.00532
32 Ar 0.147347 6.75033 6.67246
33 Ar 0.075701 6.57631 11.135
34 Ar 0.170729 11.2409 2.40388
35 Ar -0.00920021 11.1843 6.69509
36 Ar 0.0180566 11.0905 11.1233
37 Ar 4.42899 2.14498 2.34628
38 Ar 4.2893 2.36686 6.68788
39 Ar 4.55297 2.24951 11.1191
40 Ar 4.47113 6.75693 2.19679
41 Ar 4.23795 6.77304 6.74643
42 Ar 4.47231 6.67543 11.1402
43 Ar 4.20407 11.0354 2.06432
44 Ar 4.65028 11.2074 6.78054
45 Ar 4.37039 10.9164 10.852
46 Ar 8.91205 2.24546 2.26933
47 Ar 8.79636 2.27004 6.70807
48 Ar 8.76473 2.36902 10.9311
49 Ar 8.90274 6.6172 2.2648
50 Ar 8.88385 6.9656 6.71401
51 Ar 8.90513 6.85458 11.1115
52 Ar 8.9586 11.0036 1.96439
53 Ar 8.76028 11.0444 6.83326
54 Ar 9.02828 11.0482 11.3204
55 Ar 2.29914 -0.0514638 2.14587
56 Ar 2.26635 -0.0938689 6.67904
57 Ar 2.20622 -0.0949959 11.1712
58 Ar 2.21954 4.43309 1.9824
59 Ar 2.32698 4.48798 6.5335
60 Ar 2.22658 4.41373 11.283
61 Ar 2.14482 8.96202 2.22324
62 Ar 2.2565 8.94238 6.64916
63 Ar 2.22755 8.67193 11.1071
64 Ar 6.63869 -0.270469 2.15746
65 Ar 6.58432 -0.0422419 6.70974
66 Ar 6.66913 -0.12312 11.195
67 Ar 6.64887 4.2772 2.19589
68 Ar 6.41205 4.49415 6.73371
69 Ar 6.67515 4.54526 11.2641
70 Ar 6.63445 9.00094 1.97289
71 Ar 6.49476 8.83368 6.70711
72 Ar 6.70769 8.99761 11.1837
73 Ar 11.0857 0.0725726 2.22935
74 Ar 11.0049 0.078737 6.76096
75 Ar 10.9995 0.31398 11.0292
76 Ar 11.1933 4.40163 2.2144
77 Ar 11.3344 4.67757 6.55827
78 Ar 10.907 4.46249 11.2964
79 Ar 11.2292 9.00744 2.23436
80 Ar 11.2275 8.99004 6.62945
81 Ar 11.1495 8.81167 11.1271
82 Ar 2.3559 2.35113 0.122046
83 Ar 2.24767 2.2343 4.39588
84 Ar 2.26256 2.239 8.93606
85 Ar 2.19827 6.63452 -0.0726753
86 Ar 2.234 6.77586 4.35971
87 Ar 2.15135 6.62676 8.88763
88 Ar 2.1031 10.924 -0.0242833
89 Ar 2.4747 11.1976 4.60176
90 Ar 2.14502 11.0242 8.79315
91 Ar 6.61513 2.1628 -0.0641475
92 Ar 6.66398 2.31293 4.63326
93 Ar 6.44316 2.24841 8.76737
94 Ar 6.69008 6.71848 0.029919
95 Ar 6.65054 6.72273 4.34854
96 Ar 6.76484 6.68606 8.84736
97 Ar 6.50564 11.0033 -0.119969
98 Ar 6.84672 10.945 4.41453
99 Ar 6.84721 11.1231 9.09761
100 Ar 11.1807 2.13762 0.123323
101 Ar 10.986 2.18986 4.44629
102 Ar 11.2483 2.38973 8.63349
103 Ar 10.9289 6.58277 -0.115838
104 Ar 11.0961 6.64812 4.43074
105 Ar 11.089 6.68538 8.91021
106 Ar 11.2927 11.289 0.00951447
107 Ar 10.9482 11.2864 4.39998
108 Ar 11.28 11.0968 9.03429
ITEM: TIMESTEP
80060
ITEM: NUMBER OF ATOMS
108
ITEM: BOX BOUNDS pp pp pp
0.0000000000000000e+00 1.3349999400000000e+01
0.0000000000000000e+00 1.3349999400000000e+01
0.0000000000000000e+00 1.3349999400000000e+01
ITEM: ATOMS id element xu yu zu
1 Ar -0.0603745 -0.0311544 0.147452
2 Ar 0.038902 -0.0718937 4.51625
3 Ar 0.115627 0.00973465 8.80074
4 Ar -0.149921 4.20946 -0.105913
5 Ar 0.146596 4.49821 4.39367
6 Ar 0.0139938 4.40734 9.01314
7 Ar -0.149267 8.83447 -0.244913
8 Ar -0.19479 8.87589 4.50037
9 Ar 0.0440239 8.8098 8.95285
10 Ar 4.41989 -0.0459108 0.0712712
11 Ar 4.60408 0.054728 4.43945
12 Ar 4.37848 0.0788916 9.1104
13 Ar 4.60868 4.34036 0.116575
14 Ar 4.46744 4.53447 4.36751
15 Ar 4.34574 4.66959 9.07421
16 Ar 4.38464 8.79654 0.0499083
17 Ar 4.48946 8.97181 4.43666
18 Ar 4.54664 8.73858 8.93152
19 Ar 8.7777 0.136121 -0.0395337
20 Ar 8.68613 -0.0230399 4.44063
21 Ar 8.92977 -0.0726262 8.92942
22 Ar 8.89641 4.38671 0.0799857
23 Ar 8.83586 4.56816 4.60002
24 Ar 9.00416 4.58257 8.88633
25 Ar 8.99375 8.72477 0.133987
26 Ar 8.97063 8.6653 4.27919
27 Ar 9.21325 8.9802 8.9405
28 Ar 0.0954512 2.16755 2.26022
29 Ar 0.0474477 2.39827 6.70277
30 Ar 0.0724596 2.05202 11.1067
31 Ar 0.0205939 6.72074 1.9983
32 Ar 0.158544 6.76594 6.65521
33 Ar 0.0608693 6.58794 11.1268
34 Ar 0.153833 11.2342 2.41113
35 Ar 0.000681965 11.1963 6.69918
36 Ar 0.0380452 11.0969 11.1481
37 Ar 4.41143 2.14973 2.31453
38 Ar 4.27771 2.33038 6.68833
39 Ar 4.56328 2.22493 11.0991
40 Ar 4.46076 6.74393 2.19661
41 Ar 4.24902 6.75602 6.73028
42 Ar 4.4681 6.67987 11.1283
43 Ar 4.22707 11.0252 2.07541
44 Ar 4.69085 11.206 6.77056
45 Ar 4.36805 10.915 10.8584
46 Ar 8.90637 2.24526 2.27933
47 Ar 8.79711 2.28948 6.70205
48 Ar 8.80468 2.38183 10.9349
49 Ar 8.90898 6.60268 2.26644
50 Ar 8.88969 6.96771 6.71641
51 Ar 8.87503 6.8537 11.1084
52 Ar 8.9494 11.0209 1.95741
53 Ar 8.77304 11.0386 6.83982
54 Ar 9.04251 11.057 11.3438
55 Ar 2.29281 -0.0457992 2.10996
56 Ar 2.26969 -0.0725163 6.68345
57 Ar 2.20509 -0.0907258 11.1545
58 Ar 2.20792 4.42224 1.97225
59 Ar 2.34225 4.49721 6.50947
60 Ar 2.24219 4.38913 11.2754
61 Ar 2.13444 8.9685 2.21518
62 Ar 2.24841 8.94993 6.62532
63 Ar 2.23678 8.65654 11.1008
64 Ar 6.68018 -0.266139 2.17364
65 Ar 6.59081 -0.0376653 6.7218
66 Ar 6.66786 -0.128903 11.1961
67 Ar 6.64377 4.27881 2.20188
68 Ar 6.41838 4.5065 6.72983
69 Ar 6.68658 4.51853 11.2565
70 Ar 6.64094 9.01197 1.994
71 Ar 6.51881 8.83033 6.7066
72 Ar 6.70833 9.01066 11.1961
73 Ar 11.0614 0.0839103 2.24834
74 Ar 10.9932 0.0601047 6.75025
75 Ar 11.0029 0.333715 11.0299
76 Ar 11.2135 4.41942 2.19596
77 Ar 11.3456 4.65833 6.57058
78 Ar 10.8987 4.45105 11.2882
79 Ar 11.2127 8.99622 2.22531
80 Ar 11.2202 9.00088 6.62977
81 Ar 11.1525 8.80492 11.1523
82 Ar 2.33495 2.34147 0.131117
83 Ar 2.24196 2.23386 4.4172
84 Ar 2.25655 2.241 8.94503
85 Ar 2.19299 6.62971 -0.0617426
86 Ar 2.23715 6.80447 4.38868
87 Ar 2.15434 6.6282 8.89555
88 Ar 2.10859 10.9121 0.00241959
89 Ar 2.46941 11.191 4.61219
90 Ar 2.13383 11.0269 8.80339
91 Ar 6.61266 2.16874 -0.0655388
92 Ar 6.67506 2.33112 4.63147
93 Ar 6.4593 2.22234 8.76889
94 Ar 6.67649 6.71082 0.0258544
95 Ar 6.666 6.72354 4.34844
96 Ar 6.76479 6.66014 8.84295
97 Ar 6.52658 10.9971 -0.123188
98 Ar 6.85303 10.9867 4.39989
99 Ar 6.84678 11.1188 9.09081
100 Ar 11.1867 2.12838 0.107312
101 Ar 10.9886 2.19431 4.44731
102 Ar 11.2402 2.38715 8.64104
103 Ar 10.9405 6.58092 -0.124231
104 Ar 11.108 6.64751 4.44991
105 Ar 11.0842 6.67447 8.89909
106 Ar 11.2833 11.2876 -0.0110276
107 Ar 10.9302 11.2885 4.37807
108 Ar 11.2734 11.0885 9.05556
ITEM: TIMESTEP
80070
ITEM: NUMBER OF ATOMS
108
ITEM: BOX BOUNDS pp pp pp
0.0000000000000000e+00 1.3349999400000000e+01
0.0000000000000000e+00 1.3349999400000000e+01
0.0000000000000000e+00 1.3349999400000000e+01
ITEM: ATOMS id element xu yu zu
1 Ar -0.0653112 -0.00831247 0.15464
2 Ar 0.0450478 -0.0582664 4.52429
3 Ar 0.110129 0.0103555 8.79629
4 Ar -0.14426 4.21849 -0.0940798
5 Ar 0.117273 4.51972 4.40158
6 Ar 0.00161493 4.39556 9.02197
7 Ar -0.159206 8.82633 -0.240861
8 Ar -0.197901 8.87528 4.49829
9 Ar 0.0311123 8.84675 8.95918
10 Ar 4.4202 -0.0371348 0.0485015
11 Ar 4.60196 0.0345757 4.44895
12 Ar 4.34768 0.0634373 9.13044
13 Ar 4.61588 4.36035 0.123635
14 Ar 4.4778 4.51651 4.34608
15 Ar 4.34 4.65632 9.06687
16 Ar 4.38285 8.80539 0.0596536
17 Ar 4.4783 8.95947 4.45069
18 Ar 4.55673 8.733 8.92734
19 Ar 8.75945 0.144945 -0.0157485
20 Ar 8.67878 -0.0203992 4.46116
21 Ar 8.93266 -0.0727974 8.91981
22 Ar 8.88163 4.39332 0.0660316
23 Ar 8.8313 4.55675 4.60475
24 Ar 8.98497 4.59483 8.88836
25 Ar 9.00079 8.70867 0.123307
26 Ar 8.95808 8.67667 4.28038
27 Ar 9.19846 8.97785 8.93488
28 Ar 0.109193 2.14458 2.23702
29 Ar 0.0560096 2.40178 6.68313
30 Ar 0.0706825 2.04934 11.0934
31 Ar 0.0214639 6.74757 1.9931
32 Ar 0.168124 6.78025 6.63826
33 Ar 0.0433458 6.59796 11.1187
34 Ar 0.134626 11.2253 2.4175
35 Ar 0.0091989 11.2068 6.7018
36 Ar 0.0581339 11.1047 11.1718
37 Ar 4.39612 2.15478 2.28258
38 Ar 4.2676 2.2917 6.68859
39 Ar 4.57155 2.20124 11.0808
40 Ar 4.44974 6.72976 2.19681
41 Ar 4.26291 6.73803 6.71227
42 Ar 4.46511 6.68435 11.1188
43 Ar 4.25374 11.0161 2.08907
44 Ar 4.72836 11.2028 6.76157
45 Ar 4.36469 10.9158 10.8686
46 Ar 8.89893 2.24482 2.28936
47 Ar 8.79893 2.30907 6.69741
48 Ar 8.84337 2.39236 10.9393
49 Ar 8.91508 6.58635 2.26644
50 Ar 8.89589 6.9666 6.7182
51 Ar 8.84316 6.85044 11.1047
52 Ar 8.94002 11.0404 1.95221
53 Ar 8.78769 11.0331 6.84316
54 Ar 9.05657 11.0668 11.3663
55 Ar 2.28556 -0.0394479 2.07666
56 Ar 2.2743 -0.0488549 6.68821
57 Ar 2.20447 -0.0863338 11.1398
58 Ar 2.19619 4.41461 1.96728
59 Ar 2.35507 4.50685 6.48801
60 Ar 2.25808 4.36436 11.2666
61 Ar 2.12296 8.9724 2.20846
62 Ar 2.24017 8.95842 6.60206
63 Ar 2.24598 8.64498 11.0943
64 Ar 6.72081 -0.259551 2.18963
65 Ar 6.59941 -0.0312947 6.73467
66 Ar 6.66639 -0.133079 11.196
67 Ar 6.64016 4.28244 2.20951
68 Ar 6.42696 4.52038 6.726
69 Ar 6.69849 4.49213 11.2464
70 Ar 6.64766 9.0214 2.01936
71 Ar 6.54536 8.82774 6.70548
72 Ar 6.70953 9.0198 11.207
73 Ar 11.037 0.0935115 2.26812
74 Ar 10.9828 0.0399835 6.73806
75 Ar 11.0077 0.350092 11.0309
76 Ar 11.233 4.43764 2.17913
77 Ar 11.3541 4.63749 6.58387
78 Ar 10.8937 4.43816 11.2759
79 Ar 11.197 8.98418 2.21501
80 Ar 11.2113 9.01171 6.63115
81 Ar 11.1553 8.7994 11.1769
82 Ar 2.31306 2.32667 0.135823
83 Ar 2.23603 2.23234 4.43851
84 Ar 2.25041 2.24401 8.95381
85 Ar 2.1886 6.62494 -0.0495887
86 Ar 2.23989 6.8322 4.41605
87 Ar 2.15739 6.62943 8.90355
88 Ar 2.11442 10.9023 0.0264262
89 Ar 2.46194 11.1839 4.6206
90 Ar 2.12461 11.0299 8.81497
91 Ar 6.61143 2.17398 -0.0653541
92 Ar 6.6853 2.34829 4.62739
93 Ar 6.47831 2.19745 8.77206
94 Ar 6.66329 6.70206 0.0217881
95 Ar 6.6802 6.72412 4.34942
96 Ar 6.76435 6.63477 8.84038
97 Ar 6.548 10.9938 -0.12552
98 Ar 6.85792 11.0275 4.38541
99 Ar 6.84465 11.1136 9.08242
100 Ar 11.19 2.11975 0.0898986
101 Ar 10.9934 2.19978 4.44991
102 Ar 11.2293 2.38363 8.65204
103 Ar 10.9561 6.57962 -0.129261
104 Ar 11.1217 6.64674 4.4676
105 Ar 11.0824 6.66309 8.88794
106 Ar 11.2721 11.2845 -0.0312903
107 Ar 10.9129 11.2888 4.35777
108 Ar 11.2663 11.0828 9.07547
ITEM: TIMESTEP
80080
ITEM: NUMBER OF ATOMS
108
ITEM: BOX BOUNDS pp pp pp
0.0000000000000000e+00 1.3349999400000000e+01
0.0000000000000000e+00 1.3349999400000000e+01
0.0000000000000000e+00 1.3349999400000000e+01
ITEM: ATOMS id element xu yu zu
1 Ar -0.0674739 0.0146824 0.15912
2 Ar 0.0503909 -0.042353 4.53256
3 Ar 0.102464 0.0116 8.79301
4 Ar -0.136751 4.23047 -0.0825299
5 Ar 0.0876038 4.54118 4.40759
6 Ar -0.00995298 4.38543 9.03054
7 Ar -0.166533 8.81869 -0.232224
8 Ar -0.197543 8.87656 4.49424
9 Ar 0.0173267 8.88357 8.96466
10 Ar 4.42097 -0.0290223 0.0233243
11 Ar 4.59908 0.0136777 4.45792
12 Ar 4.31818 0.0452367 9.14634
13 Ar 4.62057 4.38237 0.128319
14 Ar 4.48694 4.4987 4.32432
15 Ar 4.3358 4.63949 9.05728
16 Ar 4.38047 8.81458 0.0666332
17 Ar 4.46809 8.94689 4.46372
18 Ar 4.56522 8.72894 8.92222
19 Ar 8.7439 0.1526 0.00758337
20 Ar 8.67341 -0.0164627 4.48235
21 Ar 8.93454 -0.0712814 8.9108
22 Ar 8.86562 4.39929 0.052719
23 Ar 8.82764 4.54504 4.60914
24 Ar 8.96411 4.60547 8.88831
25 Ar 9.00691 8.69522 0.111096
26 Ar 8.94486 8.69315 4.28294
27 Ar 9.17951 8.97537 8.93015
28 Ar 0.121185 2.12245 2.21593
29 Ar 0.0657507 2.40286 6.66164
30 Ar 0.0685537 2.04844 11.081
31 Ar 0.0209834 6.77305 1.99006
32 Ar 0.175792 6.79306 6.62242
33 Ar 0.0236718 6.60604 11.1108
34 Ar 0.113244 11.2148 2.42292
35 Ar 0.0161056 11.2158 6.70285
36 Ar 0.0780554 11.1137 11.1943
37 Ar 4.38325 2.15968 2.25123
38 Ar 4.25953 2.25174 6.68887
39 Ar 4.57776 2.17906 11.0647
40 Ar 4.43819 6.71484 2.19758
41 Ar 4.2795 6.71971 6.69293