ITEM: TIMESTEP
92000
ITEM: NUMBER OF ATOMS
108
ITEM: BOX BOUNDS pp pp pp
0.0000000000000000e+00 1.3349999400000000e+01
0.0000000000000000e+00 1.3349999400000000e+01
0.0000000000000000e+00 1.3349999400000000e+01
ITEM: ATOMS id element xu yu zu
1 Ar -0.026946 -0.144656 -0.114608
2 Ar 0.00780731 -0.104815 4.54852
3 Ar -0.121855 0.0699595 8.91321
4 Ar 0.00687217 4.59903 0.135513
5 Ar 0.0298708 4.50316 4.60238
6 Ar -0.0775514 4.61417 8.88897
7 Ar -0.0365028 8.8874 0.0533425
8 Ar -0.020874 9.07095 4.30892
9 Ar -0.0112526 8.70827 8.98079
10 Ar 4.53576 -0.0981071 -0.0709502
11 Ar 4.44927 -0.0243275 4.61694
12 Ar 4.49891 -0.0397194 9.0148
13 Ar 4.11814 4.35757 -0.0141621
14 Ar 4.43505 4.45497 4.42406
15 Ar 4.64261 4.45289 8.77037
16 Ar 4.32868 8.96076 -0.0757432
17 Ar 4.3571 9.05113 4.33924
18 Ar 4.46222 8.9618 9.02557
19 Ar 8.86074 0.0681634 0.20282
20 Ar 8.98248 0.130419 4.27927
21 Ar 8.68124 -0.13786 8.94519
22 Ar 8.81414 4.3959 -0.0879324
23 Ar 8.9168 4.40859 4.24798
24 Ar 8.76001 4.53318 8.869
25 Ar 8.84426 8.78674 0.0606477
26 Ar 8.88943 8.72781 4.26213
27 Ar 9.03448 8.82052 8.99925
28 Ar -0.0454692 2.33458 2.25475
29 Ar -0.123595 2.0824 6.68931
30 Ar 0.0172524 2.42515 10.9842
31 Ar -0.101746 6.6494 2.38869
32 Ar 0.101363 6.71422 6.5154
33 Ar 0.260868 6.66567 11.2075
34 Ar -0.0621729 11.3468 2.27457
35 Ar -0.00964147 11.1517 6.91682
36 Ar 0.00132573 10.9288 11.1096
37 Ar 4.43212 2.25086 2.19175
38 Ar 4.54903 2.16615 6.8781
39 Ar 4.47139 2.30185 11.0837
40 Ar 4.33231 6.57315 2.10785
41 Ar 4.44549 6.82616 6.52692
42 Ar 4.44688 6.58297 11.1675
43 Ar 4.58868 11.2836 2.20722
44 Ar 4.53787 11.1378 6.55451
45 Ar 4.55567 11.0992 11.0819
46 Ar 9.04806 2.28353 2.23545
47 Ar 8.74925 2.43348 6.70905
48 Ar 8.88445 2.27134 11.1863
49 Ar 8.91753 6.62341 2.10658
50 Ar 8.80846 6.57687 6.49881
51 Ar 8.8492 6.54738 11.0689
52 Ar 9.11019 11.1044 2.23433
53 Ar 8.9577 10.9901 6.79072
54 Ar 8.93205 11.1301 11.3411
55 Ar 2.34009 0.121482 2.24163
56 Ar 2.23693 -0.0579888 6.8166
57 Ar 2.10488 -0.213929 11.3099
58 Ar 2.21886 4.28494 2.3785
59 Ar 2.35654 4.467 6.62617
60 Ar 2.2076 4.37498 11.1481
61 Ar 2.21024 9.06633 2.16338
62 Ar 2.1981 8.95709 6.68596
63 Ar 2.21065 8.98917 11.3991
64 Ar 6.64064 -0.0888095 2.30773
65 Ar 6.85464 0.0148285 6.60625
66 Ar 6.89959 -0.039038 11.1272
67 Ar 6.67284 4.4004 2.13748
68 Ar 6.6524 4.49984 6.49559
69 Ar 6.73685 4.3516 11.0326
70 Ar 6.73342 8.8307 2.00041
71 Ar 6.60638 8.98815 6.76656
72 Ar 6.79325 8.97487 11.0757
73 Ar 11.237 0.107063 2.24348
74 Ar 11.0849 0.0657971 6.67542
75 Ar 11.166 -0.00864573 11.1013
76 Ar 11.2448 4.46942 2.24101
77 Ar 11.2043 4.50916 6.69839
78 Ar 10.9462 4.48212 11.1325
79 Ar 10.9248 8.8719 2.123
80 Ar 11.2383 8.85326 6.69301
81 Ar 11.0973 8.88556 11.2642
82 Ar 2.27083 2.03758 -0.14425
83 Ar 2.18775 2.04303 4.58588
84 Ar 2.30179 2.26493 8.95707
85 Ar 2.14556 6.78946 0.186358
86 Ar 2.32788 6.95832 4.42146
87 Ar 2.23844 6.64275 8.89277
88 Ar 2.20596 11.2025 0.0175045
89 Ar 2.16932 11.1065 4.34447
90 Ar 2.26331 11.1815 8.99827
91 Ar 6.57035 2.34649 -0.0657345
92 Ar 6.57936 2.18724 4.39198
93 Ar 6.72485 2.17896 8.97124
94 Ar 6.62139 6.53539 -0.157837
95 Ar 6.64885 6.63577 4.22628
96 Ar 6.55026 6.69971 8.99964
97 Ar 6.74029 11.0461 0.0205098
98 Ar 6.7291 11.1331 4.46951
99 Ar 6.63169 11.0636 8.88733
100 Ar 11.2883 2.2877 -0.12922
101 Ar 11.3092 2.33109 4.56627
102 Ar 11.1294 2.40662 8.86404
103 Ar 11.0173 6.64771 -0.0179194
104 Ar 11.0792 6.57743 4.32912
105 Ar 10.9396 6.63192 8.89152
106 Ar 11.154 11.1375 -0.122489
107 Ar 11.0276 11.0241 4.49493
108 Ar 11.0655 10.9998 8.9432
ITEM: TIMESTEP
92010
ITEM: NUMBER OF ATOMS
108
ITEM: BOX BOUNDS pp pp pp
0.0000000000000000e+00 1.3349999400000000e+01
0.0000000000000000e+00 1.3349999400000000e+01
0.0000000000000000e+00 1.3349999400000000e+01
ITEM: ATOMS id element xu yu zu
1 Ar -0.0372563 -0.146317 -0.116306
2 Ar -0.00238524 -0.115073 4.54655
3 Ar -0.137877 0.0559648 8.89855
4 Ar 0.00655097 4.59869 0.149555
5 Ar 0.0240214 4.51057 4.62238
6 Ar -0.0884534 4.61727 8.88935
7 Ar -0.064703 8.8915 0.0837561
8 Ar -0.00559464 9.08317 4.30577
9 Ar -0.0192531 8.7157 8.98244
10 Ar 4.53682 -0.086946 -0.0645488
11 Ar 4.45042 -0.0301355 4.61651
12 Ar 4.50168 -0.0410231 9.00909
13 Ar 4.13 4.33486 -0.0379694
14 Ar 4.44136 4.44097 4.42756
15 Ar 4.64591 4.45752 8.753
16 Ar 4.32499 8.9668 -0.0767036
17 Ar 4.35515 9.06078 4.33547
18 Ar 4.4469 8.97626 9.02436
19 Ar 8.85796 0.0873288 0.210719
20 Ar 8.98698 0.142351 4.27826
21 Ar 8.68712 -0.126213 8.9184
22 Ar 8.81965 4.39321 -0.105576
23 Ar 8.91716 4.40232 4.23663
24 Ar 8.75426 4.50839 8.8587
25 Ar 8.84497 8.7915 0.0594305
26 Ar 8.89062 8.72043 4.25282
27 Ar 9.02472 8.81096 9.00026
28 Ar -0.0370083 2.30485 2.24966
29 Ar -0.123105 2.0726 6.67833
30 Ar 0.0260711 2.42906 10.9924
31 Ar -0.102023 6.65365 2.40948
32 Ar 0.09609 6.71395 6.52678
33 Ar 0.260911 6.6729 11.2194
34 Ar -0.0600877 11.3405 2.28025
35 Ar 0.00136305 11.175 6.88417
36 Ar 0.00413378 10.9159 11.122
37 Ar 4.42104 2.24933 2.20064
38 Ar 4.55112 2.17828 6.87155
39 Ar 4.47625 2.29327 11.083
40 Ar 4.32637 6.56808 2.0964
41 Ar 4.47206 6.82663 6.52412
42 Ar 4.43957 6.57282 11.1777
43 Ar 4.5781 11.2909 2.19342
44 Ar 4.53547 11.149 6.53499
45 Ar 4.56034 11.1136 11.0804
46 Ar 9.06057 2.28924 2.22767
47 Ar 8.77363 2.44774 6.71047
48 Ar 8.90018 2.28164 11.1693
49 Ar 8.91599 6.61058 2.11559
50 Ar 8.81046 6.57033 6.48912
51 Ar 8.82551 6.5391 11.0634
52 Ar 9.11506 11.0822 2.24312
53 Ar 8.96926 11.0109 6.77792
54 Ar 8.92518 11.1335 11.323
55 Ar 2.33669 0.0957786 2.23901
56 Ar 2.24103 -0.0306629 6.79325
57 Ar 2.11966 -0.209551 11.2846
58 Ar 2.22429 4.27254 2.38235
59 Ar 2.371 4.4651 6.65127
60 Ar 2.17937 4.36888 11.1406
61 Ar 2.20933 9.04961 2.16469
62 Ar 2.21329 8.95887 6.68592
63 Ar 2.21002 9.00567 11.4053
64 Ar 6.64228 -0.0832633 2.31336
65 Ar 6.85829 0.0208825 6.5969
66 Ar 6.9122 -0.033409 11.1395
67 Ar 6.67895 4.39289 2.14695
68 Ar 6.66395 4.49698 6.49915
69 Ar 6.75245 4.31939 11.0487
70 Ar 6.73772 8.83558 2.01576
71 Ar 6.58895 8.98926 6.7697
72 Ar 6.81402 8.96378 11.0627
73 Ar 11.2515 0.11097 2.25346
74 Ar 11.0962 0.0687513 6.64426
75 Ar 11.181 -0.00589329 11.1202
76 Ar 11.247 4.47114 2.2449
77 Ar 11.2173 4.49743 6.68315
78 Ar 10.9595 4.4807 11.1336
79 Ar 10.9356 8.89791 2.12934
80 Ar 11.2419 8.83687 6.69524
81 Ar 11.0989 8.8899 11.2524
82 Ar 2.23897 2.0351 -0.144348
83 Ar 2.19159 2.04397 4.59449
84 Ar 2.30389 2.24462 8.94659
85 Ar 2.1575 6.80683 0.192164
86 Ar 2.3153 6.96124 4.43465
87 Ar 2.23902 6.66105 8.90859
88 Ar 2.22195 11.1854 0.0214355
89 Ar 2.14965 11.1114 4.35337
90 Ar 2.24691 11.1906 9.00259
91 Ar 6.55727 2.3448 -0.0640272
92 Ar 6.5894 2.1802 4.39035
93 Ar 6.71722 2.18927 8.99083
94 Ar 6.60156 6.51432 -0.149559
95 Ar 6.64507 6.63924 4.23685
96 Ar 6.52804 6.69105 9.00263
97 Ar 6.7349 11.0312 0.017941
98 Ar 6.73395 11.1484 4.4528
99 Ar 6.62609 11.0732 8.87832
100 Ar 11.2955 2.30078 -0.132092
101 Ar 11.3117 2.31887 4.57964
102 Ar 11.1317 2.41456 8.87227
103 Ar 11.0234 6.6442 0.00437664
104 Ar 11.063 6.58312 4.35066
105 Ar 10.9165 6.63899 8.8922
106 Ar 11.1182 11.1245 -0.126653
107 Ar 11.0169 11.0183 4.49625
108 Ar 11.0782 11.0215 8.94895
ITEM: TIMESTEP
92020
ITEM: NUMBER OF ATOMS
108
ITEM: BOX BOUNDS pp pp pp
0.0000000000000000e+00 1.3349999400000000e+01
0.0000000000000000e+00 1.3349999400000000e+01
0.0000000000000000e+00 1.3349999400000000e+01
ITEM: ATOMS id element xu yu zu
1 Ar -0.048151 -0.145107 -0.116012
2 Ar -0.0128795 -0.124419 4.54442
3 Ar -0.152256 0.0414941 8.88582
4 Ar 0.00772917 4.5969 0.16132
5 Ar 0.0205867 4.51656 4.64041
6 Ar -0.0974978 4.62019 8.88913
7 Ar -0.0937967 8.89578 0.115823
8 Ar 0.00817403 9.09345 4.30427
9 Ar -0.0270502 8.72409 8.9835
10 Ar 4.53852 -0.0739878 -0.0588165
11 Ar 4.45136 -0.0346606 4.61391
12 Ar 4.5046 -0.0419721 9.00275
13 Ar 4.14495 4.31391 -0.0606777
14 Ar 4.44734 4.42669 4.43124
15 Ar 4.64635 4.46294 8.73748
16 Ar 4.32609 8.97195 -0.0753252
17 Ar 4.35699 9.06962 4.331
18 Ar 4.42941 8.98886 9.02197
19 Ar 8.85618 0.106347 0.216813
20 Ar 8.9915 0.153068 4.28005
21 Ar 8.69907 -0.112935 8.8905
22 Ar 8.82684 4.39079 -0.120057
23 Ar 8.91715 4.39609 4.2281
24 Ar 8.74944 4.48321 8.84725
25 Ar 8.84626 8.79674 0.0547124
26 Ar 8.89031 8.71529 4.24729
27 Ar 9.01202 8.80262 8.99939
28 Ar -0.0265116 2.27289 2.24431
29 Ar -0.117847 2.06596 6.66966
30 Ar 0.0337913 2.43024 11.002
31 Ar -0.0994984 6.6598 2.42872
32 Ar 0.0901871 6.71478 6.53992
33 Ar 0.256828 6.68005 11.2312
34 Ar -0.0579649 11.3313 2.28359
35 Ar 0.0120844 11.1968 6.84952
36 Ar 0.00575202 10.9053 11.1333
37 Ar 4.4108 2.24633 2.20986
38 Ar 4.55282 2.18969 6.86192
39 Ar 4.48066 2.28254 11.0819
40 Ar 4.3229 6.56431 2.0864
41 Ar 4.49925 6.82623 6.52307
42 Ar 4.43033 6.56349 11.1875
43 Ar 4.56493 11.2949 2.18015
44 Ar 4.53097 11.1599 6.5188
45 Ar 4.5645 11.1287 11.0808
46 Ar 9.07201 2.29506 2.2181
47 Ar 8.80071 2.45914 6.71045
48 Ar 8.91771 2.2888 11.1512
49 Ar 8.91314 6.59578 2.12447
50 Ar 8.81289 6.56592 6.48116
51 Ar 8.80154 6.5337 11.0596
52 Ar 9.11591 11.0626 2.25097
53 Ar 8.98007 11.0318 6.76304
54 Ar 8.91854 11.1368 11.3018
55 Ar 2.33142 0.0689748 2.23617
56 Ar 2.24527 -0.00365876 6.77005
57 Ar 2.13611 -0.20191 11.2543
58 Ar 2.22819 4.26218 2.38577
59 Ar 2.38388 4.46288 6.67698
60 Ar 2.15197 4.36487 11.1318
61 Ar 2.20836 9.0326 2.16608
62 Ar 2.22857 8.96209 6.68723
63 Ar 2.20957 9.02018 11.4059
64 Ar 6.64552 -0.0747872 2.31747
65 Ar 6.86075 0.0265582 6.58772
66 Ar 6.92071 -0.0272272 11.1543
67 Ar 6.68399 4.38569 2.15641
68 Ar 6.67451 4.49455 6.50331
69 Ar 6.76496 4.28937 11.0658
70 Ar 6.73864 8.84043 2.03427
71 Ar 6.57393 8.98773 6.77077
72 Ar 6.83318 8.95098 11.0512
73 Ar 11.2649 0.114695 2.26269
74 Ar 11.1042 0.0697525 6.6142
75 Ar 11.194 -0.00213494 11.138
76 Ar 11.2471 4.47158 2.24798
77 Ar 11.2279 4.48661 6.66767
78 Ar 10.9766 4.48021 11.1342
79 Ar 10.952 8.92291 2.13641
80 Ar 11.2441 8.8198 6.69634
81 Ar 11.1005 8.89171 11.2391
82 Ar 2.20492 2.03377 -0.142563
83 Ar 2.19587 2.04724 4.60287
84 Ar 2.30439 2.22379 8.93519
85 Ar 2.1692 6.82165 0.196827
86 Ar 2.30097 6.96033 4.4464
87 Ar 2.24166 6.67956 8.92395
88 Ar 2.23809 11.1679 0.0282996
89 Ar 2.13158 11.1185 4.36429
90 Ar 2.23019 11.1979 9.00587
91 Ar 6.5449 2.3403 -0.0607639
92 Ar 6.60044 2.17392 4.38889
93 Ar 6.70961 2.1988 9.0089
94 Ar 6.58128 6.49449 -0.139579
95 Ar 6.64013 6.64404 4.24835
96 Ar 6.50777 6.68364 9.00323
97 Ar 6.72918 11.018 0.015488
98 Ar 6.74094 11.162 4.4355
99 Ar 6.6218 11.0837 8.86932
100 Ar 11.3015 2.3129 -0.133431
101 Ar 11.3105 2.30586 4.59037
102 Ar 11.1317 2.41999 8.88117
103 Ar 11.0315 6.64022 0.0256799
104 Ar 11.047 6.59084 4.37483
105 Ar 10.8969 6.64573 8.8926
106 Ar 11.0827 11.1122 -0.127386
107 Ar 11.0073 11.0139 4.49857
108 Ar 11.0916 11.045 8.95542
ITEM: TIMESTEP
92030
ITEM: NUMBER OF ATOMS
108
ITEM: BOX BOUNDS pp pp pp
0.0000000000000000e+00 1.3349999400000000e+01
0.0000000000000000e+00 1.3349999400000000e+01
0.0000000000000000e+00 1.3349999400000000e+01
ITEM: ATOMS id element xu yu zu
1 Ar -0.0590889 -0.141586 -0.113862
2 Ar -0.0234134 -0.132508 4.54187
3 Ar -0.164894 0.0268936 8.87518
4 Ar 0.0106119 4.59389 0.170895
5 Ar 0.0198327 4.52094 4.656
6 Ar -0.104576 4.62302 8.88832
7 Ar -0.123155 8.90017 0.148942
8 Ar 0.0200649 9.10152 4.30468
9 Ar -0.0345457 8.73344 8.98386
10 Ar 4.54069 -0.0593081 -0.0538365
11 Ar 4.4521 -0.0376462 4.60888
12 Ar 4.50771 -0.0425239 8.99557
13 Ar 4.16237 4.29485 -0.0819848
14 Ar 4.4529 4.4124 4.43514
15 Ar 4.64388 4.46894 8.72434
16 Ar 4.33221 8.97607 -0.0717465
17 Ar 4.3624 9.07753 4.32578
18 Ar 4.4101 8.99966 9.01862
19 Ar 8.85551 0.124807 0.221069
20 Ar 8.99604 0.162456 4.28438
21 Ar 8.71673 -0.0979814 8.86211
22 Ar 8.83563 4.38864 -0.131031
23 Ar 8.91682 4.38992 4.22265
24 Ar 8.74565 4.45841 8.83511
25 Ar 8.84808 8.80202 0.0468449
26 Ar 8.88844 8.71246 4.24568
27 Ar 8.99662 8.79605 8.99621
28 Ar -0.0140833 2.23936 2.23896
29 Ar -0.107829 2.0626 6.66366
30 Ar 0.0400886 2.42834 11.0126
31 Ar -0.0943813 6.66759 2.44641
32 Ar 0.083894 6.71679 6.55486
33 Ar 0.248643 6.68725 11.2429
34 Ar -0.0559357 11.3195 2.28429
35 Ar 0.0223657 11.2165 6.81333
36 Ar 0.00607995 10.8973 11.1437
37 Ar 4.40144 2.24171 2.21927
38 Ar 4.55439 2.20015 6.84932
39 Ar 4.48411 2.26974 11.0804
40 Ar 4.32204 6.56162 2.0783
41 Ar 4.52641 6.82486 6.5236
42 Ar 4.4192 6.55503 11.1967
43 Ar 4.54953 11.2955 2.1677
44 Ar 4.52447 11.1705 6.50622
45 Ar 4.5683 11.1445 11.0833
46 Ar 9.0824 2.30096 2.20686
47 Ar 8.83002 2.46729 6.70886
48 Ar 8.93702 2.29242 11.1322
49 Ar 8.90907 6.57953 2.1329
50 Ar 8.81559 6.56363 6.47519
51 Ar 8.77773 6.53087 11.0574
52 Ar 9.11237 11.0464 2.25773
53 Ar 8.98998 11.0524 6.74641
54 Ar 8.91212 11.1402 11.2778
55 Ar 2.32434 0.0415437 2.23321
56 Ar 2.24967 0.0224437 6.74748
57 Ar 2.15375 -0.191249 11.2199
58 Ar 2.23044 4.25407 2.38869
59 Ar 2.39489 4.46059 6.70298
60 Ar 2.12611 4.36305 11.1219
61 Ar 2.20739 9.01565 2.16783
62 Ar 2.24373 8.96669 6.68994
63 Ar 2.20921 9.03231 11.4011
64 Ar 6.65022 -0.0635885 2.31984
65 Ar 6.86195 0.0319915 6.57882
66 Ar 6.92538 -0.0204919 11.1713
67 Ar 6.68785 4.37878 2.16571
68 Ar 6.68406 4.49239 6.50789
69 Ar 6.774 4.26224 11.0832
70 Ar 6.73623 8.84511 2.05554
71 Ar 6.56166 8.98394 6.76976
72 Ar 6.85011 8.93675 11.0415
73 Ar 11.2767 0.117949 2.27099
74 Ar 11.1086 0.0687201 6.58576
75 Ar 11.2047 0.00259189 11.1546
76 Ar 11.2452 4.47067 2.25055
77 Ar 11.2358 4.4769 6.65247
78 Ar 10.9971 4.48115 11.1342
79 Ar 10.9736 8.94612 2.1443
80 Ar 11.2449 8.80263 6.69641
81 Ar 11.1019 8.89076 11.2245
82 Ar 2.16925 2.03354 -0.138885
83 Ar 2.20045 2.05287 4.61058
84 Ar 2.30324 2.20269 8.92318
85 Ar 2.18015 6.83359 0.199992
86 Ar 2.28545 6.95554 4.45679
87 Ar 2.24622 6.69813 8.93872
88 Ar 2.25391 11.151 0.0376459
89 Ar 2.1157 11.1275 4.37703
90 Ar 2.21325 11.2036 9.00769
91 Ar 6.53365 2.33297 -0.0557125
92 Ar 6.6124 2.16853 4.38767
93 Ar 6.70211 2.20706 9.02483
94 Ar 6.56092 6.47615 -0.127908
95 Ar 6.63402 6.65003 4.26054
96 Ar 6.48972 6.67753 9.00157
97 Ar 6.72332 11.0068 0.013139
98 Ar 6.74996 11.1736 4.4179
99 Ar 6.61896 11.095 8.86038
100 Ar 11.3063 2.32394 -0.133111
101 Ar 11.3058 2.29247 4.59787
102 Ar 11.1298 2.4227 8.89047
103 Ar 11.0413 6.63597 0.0456796
104 Ar 11.0317 6.60041 4.40102
105 Ar 10.881 6.65167 8.8927
106 Ar 11.0478 11.1007 -0.124762
107 Ar 10.999 11.011 4.50191
108 Ar 11.1053 11.0696 8.96224
ITEM: TIMESTEP
92040
ITEM: NUMBER OF ATOMS
108
ITEM: BOX BOUNDS pp pp pp
0.0000000000000000e+00 1.3349999400000000e+01
0.0000000000000000e+00 1.3349999400000000e+01
0.0000000000000000e+00 1.3349999400000000e+01
ITEM: ATOMS id element xu yu zu
1 Ar -0.0695557 -0.13632 -0.110014
2 Ar -0.0337341 -0.138977 4.53863
3 Ar -0.175703 0.0125163 8.86668
4 Ar 0.0153434 4.58983 0.178417
5 Ar 0.0219344 4.52355 4.6688
6 Ar -0.109621 4.62581 8.88693
7 Ar -0.152077 8.90461 0.182392
8 Ar 0.0297981 9.10719 4.30726
9 Ar -0.0416415 8.74372 8.98339
10 Ar 4.54309 -0.0430433 -0.0496288
11 Ar 4.45268 -0.0389078 4.60118
12 Ar 4.51103 -0.0426552 8.98735
13 Ar 4.1816 4.27772 -0.101619
14 Ar 4.45797 4.39838 4.43928
15 Ar 4.63854 4.47528 8.71408
16 Ar 4.3434 8.97899 -0.0662116
17 Ar 4.37107 9.08437 4.31984
18 Ar 4.38939 9.00874 9.01451
19 Ar 8.85604 0.14232 0.223431
20 Ar 9.00052 0.170427 4.29096
21 Ar 8.73958 -0.0813334 8.83384
22 Ar 8.84595 4.38677 -0.138312
23 Ar 8.9162 4.38381 4.22049
24 Ar 8.74296 4.43475 8.82278
25 Ar 8.85038 8.80692 0.0363142
26 Ar 8.88506 8.71195 4.24801
27 Ar 8.97884 8.79168 8.99038
28 Ar 0.000151125 2.20493 2.23386
29 Ar -0.0932969 2.06256 6.66053
30 Ar 0.0446626 2.42307 11.0237
31 Ar -0.0869703 6.67669 2.46253
32 Ar 0.0774579 6.71999 6.57159
33 Ar 0.236437 6.69464 11.2546
34 Ar -0.0541143 11.3052 2.28218
35 Ar 0.0320464 11.2337 6.77619
36 Ar 0.00504328 10.8921 11.1535
37 Ar 4.39293 2.23539 2.22875
38 Ar 4.55604 2.20945 6.8339
39 Ar 4.48612 2.25498 11.0784
40 Ar 4.32385 6.55982 2.07246
41 Ar 4.55283 6.82244 6.52551
42 Ar 4.40631 6.54753 11.2052
43 Ar 4.53239 11.2929 2.15633
44 Ar 4.51615 11.1807 6.49743
45 Ar 4.57182 11.1605 11.0876
46 Ar 9.09168 2.30687 2.19411
47 Ar 8.86108 2.47183 6.70556
48 Ar 8.95804 2.2923 11.1127
49 Ar 8.9039 6.56236 2.14063
50 Ar 8.81839 6.5634 6.47149
51 Ar 8.75451 6.53024 11.057
52 Ar 9.10423 11.0339 2.26325
53 Ar 8.99877 11.0722 6.72843
54 Ar 8.90591 11.1437 11.2509
55 Ar 2.31553 0.0139651 2.23021
56 Ar 2.25422 0.0470546 6.72603
57 Ar 2.17207 -0.177798 11.1828
58 Ar 2.23094 4.24836 2.39102
59 Ar 2.40372 4.45847 6.72892
60 Ar 2.10244 4.36351 11.1108
61 Ar 2.20653 8.99906 2.1702
62 Ar 2.25861 8.97253 6.69402
63 Ar 2.209 9.04179 11.3911
64 Ar 6.65617 -0.0499537 2.32026
65 Ar 6.86183 0.0372816 6.57032
66 Ar 6.92655 -0.0132153 11.1897
67 Ar 6.69041 4.37214 2.17475
68 Ar 6.69264 4.49035 6.51272
69 Ar 6.77934 4.23859 11.1009
70 Ar 6.73066 8.84948 2.0791
71 Ar 6.55245 8.97837 6.76669
72 Ar 6.86418 8.92144 11.0336
73 Ar 11.2864 0.120427 2.27817
74 Ar 11.1095 0.0656533 6.55945
75 Ar 11.2129 0.0082084 11.1697
76 Ar 11.2419 4.4684 2.25294
77 Ar 11.2408 4.46846 6.63807
78 Ar 11.0208 4.48393 11.1336
79 Ar 10.9998 8.9669 2.15322
80 Ar 11.2443 8.78597 6.69553
81 Ar 11.1032 8.88696 11.2089
82 Ar 2.13261 2.03436 -0.133345
83 Ar 2.20522 2.06093 4.61714
84 Ar 2.30043 2.18162 8.91087
85 Ar 2.18992 6.84238 0.201308
86 Ar 2.26933 6.9469 4.46597
87 Ar 2.25251 6.71658 8.95277
88 Ar 2.26893 11.1354 0.0489143
89 Ar 2.10254 11.1384 4.39135
90 Ar 2.19619 11.2075 9.00767
91 Ar 6.52391 2.32284 -0.0486686
92 Ar 6.6252 2.16417 4.38673
93 Ar 6.69477 2.21363 9.03804
94 Ar 6.54084 6.45951 -0.114611
95 Ar 6.6268 6.65701 4.27316
96 Ar 6.47411 6.67276 8.99784
97 Ar 6.71751 10.9976 0.0108983
98 Ar 6.7608 11.183 4.40032
99 Ar 6.6177 11.107 8.85154
100 Ar 11.3097 2.33379 -0.131033
101 Ar 11.2978 2.27909 4.60168
102 Ar 11.1264 2.42254 8.8999
103 Ar 11.0527 6.63165 0.0641453
104 Ar 11.0175 6.61158 4.42852
105 Ar 10.8689 6.65639 8.89252
106 Ar 11.014 11.0905 -0.118986
107 Ar 10.9923 11.0094 4.50616
108 Ar 11.1192 11.0948 8.96902
ITEM: TIMESTEP
92050
ITEM: NUMBER OF ATOMS
108
ITEM: BOX BOUNDS pp pp pp
0.0000000000000000e+00 1.3349999400000000e+01
0.0000000000000000e+00 1.3349999400000000e+01
0.0000000000000000e+00 1.3349999400000000e+01
ITEM: ATOMS id element xu yu zu
1 Ar -0.079102 -0.129868 -0.104638
2 Ar -0.043606 -0.143458 4.53439
3 Ar -0.18459 -0.00128391 8.8603
4 Ar 0.021999 4.58489 0.184058
5 Ar 0.0269646 4.52433 4.67851
6 Ar -0.112609 4.62856 8.88497
7 Ar -0.179792 8.90905 0.215326
8 Ar 0.0372017 9.11032 4.31223
9 Ar -0.0482434 8.7549 8.98201
10 Ar 4.5454 -0.025399 -0.0461496
11 Ar 4.45318 -0.0383492 4.59063
12 Ar 4.5146 -0.042366 8.9779
13 Ar 4.20199 4.2625 -0.119336
14 Ar 4.46247 4.38489 4.44368
15 Ar 4.63042 4.48166 8.70711
16 Ar 4.35948 8.98054 -0.0590497
17 Ar 4.38259 9.09 4.31327
18 Ar 4.36781 9.01628 9.00988
19 Ar 8.85787 0.158519 0.22383
20 Ar 9.00488 0.176914 4.29942
21 Ar 8.76709 -0.0630061 8.80626
22 Ar 8.85769 4.38517 -0.14188
23 Ar 8.91532 4.3778 4.22175
24 Ar 8.74142 4.41297 8.81078
25 Ar 8.85305 8.81102 0.0236941
26 Ar 8.88024 8.71376 4.25417
27 Ar 8.95904 8.7898 8.98158
28 Ar 0.0160367 2.17027 2.22927
29 Ar -0.0747324 2.06578 6.66036
30 Ar 0.0472667 2.41423 11.0348
31 Ar -0.0776308 6.68671 2.47706
32 Ar 0.0711262 6.72436 6.59008
33 Ar 0.220355 6.70236 11.2661
34 Ar -0.0525874 11.2887 2.27722
35 Ar 0.040955 11.248 6.73874
36 Ar 0.00260059 10.8899 11.1631
37 Ar 4.38523 2.22734 2.23817
38 Ar 4.55797 2.21746 6.81594
39 Ar 4.48628 2.23839 11.0758
40 Ar 4.32829 6.55869 2.06923
41 Ar 4.57779 6.81888 6.5286
42 Ar 4.39185 6.54107 11.2128
43 Ar 4.51409 11.2873 2.14627
44 Ar 4.50627 11.1901 6.49251
45 Ar 4.57513 11.1766 11.0938
46 Ar 9.09982 2.31274 2.18012
47 Ar 8.89336 2.47252 6.70043
48 Ar 8.98058 2.28839 11.0929
49 Ar 8.89774 6.54489 2.14746
50 Ar 8.82106 6.56515 6.4703
51 Ar 8.73229 6.53134 11.0583
52 Ar 9.09148 11.0256 2.26747
53 Ar 9.00628 11.0909 6.70949
54 Ar 8.89991 11.1474 11.2212
55 Ar 2.30511 -0.0132873 2.22724
56 Ar 2.25894 0.0695916 6.7061
57 Ar 2.19063 -0.161766 11.1441
58 Ar 2.22972 4.24517 2.39265
59 Ar 2.4101 4.45676 6.75445
60 Ar 2.08153 4.36624 11.0989
61 Ar 2.20586 8.98313 2.17347
62 Ar 2.27303 8.9794 6.69929
63 Ar 2.20903 9.04842 11.3764
64 Ar 6.66315 -0.0342328 2.31857
65 Ar 6.86035 0.0424881 6.56236
66 Ar 6.92457 -0.00542545 11.209
67 Ar 6.69156 4.36572 2.18342
68 Ar 6.70028 4.48822 6.5177
69 Ar 6.78089 4.21886 11.1183
70 Ar 6.72223 8.85346 2.10443
71 Ar 6.5465 8.97154 6.76166
72 Ar 6.87476 8.90543 11.0277
73 Ar 11.2938 0.121816 2.28411
74 Ar 11.1071 0.0606387 6.53581
75 Ar 11.2185 0.0145936 11.1833
76 Ar 11.2377 4.46484 2.25542
77 Ar 11.2429 4.46139 6.6249
78 Ar 11.0472 4.48888 11.1326
79 Ar 11.0297 8.98478 2.16348
80 Ar 11.242 8.77042 6.69386
81 Ar 11.104 8.88036 11.1925
82 Ar 2.09569 2.03622 -0.126014
83 Ar 2.21008 2.07144 4.62212
84 Ar 2.29599 2.16087 8.89854
85 Ar 2.19816 6.84786 0.200472
86 Ar 2.25321 6.93456 4.47416
87 Ar 2.26026 6.73476 8.96599
88 Ar 2.2827 11.1217 0.0614556
89 Ar 2.09256 11.1507 4.40693
90 Ar 2.17908 11.2098 9.00549
91 Ar 6.51608 2.31006 -0.0394769
92 Ar 6.63876 2.16098 4.38614
93 Ar 6.68765 2.21814 9.04804
94 Ar 6.52145 6.44475 -0.0998072
95 Ar 6.6186 6.66476 4.28597
96 Ar 6.46113 6.66934 8.99225
97 Ar 6.71199 10.9906 0.00878805
98 Ar 6.7732 11.1903 4.38305
99 Ar 6.61809 11.1196 8.84284
100 Ar 11.3117 2.34238 -0.127128
101 Ar 11.2869 2.26615 4.60154
102 Ar 11.1219 2.41944 8.90916
103 Ar 11.0651 6.62743 0.0809231
104 Ar 11.0049 6.62408 4.45657
105 Ar 10.8605 6.6596 8.89212
106 Ar 10.9816 11.0819 -0.11038
107 Ar 10.9873 11.009 4.51113
108 Ar 11.1327 11.1202 8.97541
ITEM: TIMESTEP
92060
ITEM: NUMBER OF ATOMS
108
ITEM: BOX BOUNDS pp pp pp
0.0000000000000000e+00 1.3349999400000000e+01
0.0000000000000000e+00 1.3349999400000000e+01
0.0000000000000000e+00 1.3349999400000000e+01
ITEM: ATOMS id element xu yu zu
1 Ar -0.0873701 -0.122768 -0.0979191
2 Ar -0.0528171 -0.145591 4.52887
3 Ar -0.191452 -0.0141579 8.85594
4 Ar 0.0305804 4.57922 0.188012
5 Ar 0.0348824 4.52329 4.68497
6 Ar -0.113551 4.63121 8.88245
7 Ar -0.205472 8.91343 0.246774
8 Ar 0.0422245 9.11084 4.31979
9 Ar -0.0542642 8.76696 8.97966
10 Ar 4.54728 -0.00665473 -0.043295
11 Ar 4.45366 -0.0359726 4.57713
12 Ar 4.51846 -0.0416826 8.96703
13 Ar 4.22285 4.24912 -0.134923
14 Ar 4.46633 4.37219 4.44834
15 Ar 4.61971 4.48777 8.70378
16 Ar 4.38009 8.98056 -0.0506482
17 Ar 4.39649 9.0943 4.30624
18 Ar 4.34595 9.0225 9.00492
19 Ar 8.86111 0.173065 0.222183
20 Ar 9.00897 0.18186 4.30936
21 Ar 8.79863 -0.0430586 8.77989
22 Ar 8.87073 4.38381 -0.141881
23 Ar 8.91422 4.37193 4.22653
24 Ar 8.74104 4.39367 8.7996
25 Ar 8.85601 8.81401 0.00959874
26 Ar 8.87412 8.71787 4.26394
27 Ar 8.93765 8.79057 8.96958
28 Ar 0.0333759 2.13602 2.22545
29 Ar -0.0528225 2.07216 6.66311
30 Ar 0.0477344 2.40173 11.0456
31 Ar -0.0667703 6.69721 2.48999
32 Ar 0.0651385 6.72975 6.6102
33 Ar 0.200605 6.7105 11.2775
34 Ar -0.0514041 11.2705 2.2695
35 Ar 0.0489022 11.259 6.70172
36 Ar -0.00124993 10.8909 11.1729
37 Ar 4.37824 2.21758 2.24739
38 Ar 4.56033 2.22408 6.79572
39 Ar 4.48427 2.22016 11.0725
40 Ar 4.33521 6.55806 2.06888
41 Ar 4.60054 6.8141 6.53269
42 Ar 4.37606 6.53576 11.2194
43 Ar 4.49527 11.2789 2.13776
44 Ar 4.49512 11.1989 6.49142
45 Ar 4.57826 11.1924 11.1015
46 Ar 9.10674 2.31851 2.16522
47 Ar 8.92629 2.46914 6.69337
48 Ar 9.00433 2.28084 11.0732
49 Ar 8.89073 6.5277 2.15328
50 Ar 8.82333 6.56875 6.47186
51 Ar 8.71148 6.53372 11.061
52 Ar 9.07429 11.0213 2.27034
53 Ar 9.01227 11.1082 6.69001
54 Ar 8.89413 11.1513 11.1891
55 Ar 2.29321 -0.0397595 2.22437
56 Ar 2.26382 0.0895029 6.68803
57 Ar 2.20899 -0.143365 11.1048
58 Ar 2.22682 4.24458 2.39348
59 Ar 2.41375 4.45566 6.77922
60 Ar 2.06381 4.37118 11.0862
61 Ar 2.20548 8.96805 2.17786
62 Ar 2.2868 8.98707 6.70553
63 Ar 2.20944 9.05214 11.3574
64 Ar 6.67091 -0.0168233 2.31469
65 Ar 6.85749 0.0476297 6.55508
66 Ar 6.91983 0.00283137 11.2284
67 Ar 6.69122 4.3595 2.19166
68 Ar 6.70706 4.48584 6.52272
69 Ar 6.77875 4.20329 11.1354
70 Ar 6.71128 8.85697 2.13093
71 Ar 6.54393 8.96401 6.75478
72 Ar 6.88129 8.88912 11.0238
73 Ar 11.2983 0.121814 2.28866
74 Ar 11.1017 0.0538488 6.51533
75 Ar 11.2214 0.021584 11.1951
76 Ar 11.2329 4.46013 2.25829
77 Ar 11.2421 4.45574 6.61336
78 Ar 11.0759 4.4962 11.131
79 Ar 11.062 8.9995 2.1755
80 Ar 11.2381 8.75658 6.69158
81 Ar 11.1043 8.87109 11.1756
82 Ar 2.05929 2.03911 -0.117012
83 Ar 2.21492 2.08442 4.6251
84 Ar 2.28999 2.14079 8.88649
85 Ar 2.20463 6.84998 0.197261
86 Ar 2.23769 6.91872 4.48161
87 Ar 2.26913 6.75249 8.97827
88 Ar 2.29483 11.1101 0.0745498
89 Ar 2.08615 11.1642 4.4234
90 Ar 2.16203 11.2104 9.00091
91 Ar 6.51053 2.29482 -0.028052
92 Ar 6.65301 2.15908 4.38594
93 Ar 6.68082 2.22034 9.05446
94 Ar 6.50311 6.43203 -0.0836699
95 Ar 6.60958 6.67304 4.29873
96 Ar 6.45091 6.66726 8.98508
97 Ar 6.70698 10.9859 0.00684763
98 Ar 6.7868 11.1953 4.36643
99 Ar 6.62019 11.1326 8.83431
100 Ar 11.3124 2.34969 -0.121366
101 Ar 11.2738 2.25402 4.59732
102 Ar 11.1169 2.41339 8.91791
103 Ar 11.0784 6.62346 0.0959316
104 Ar 10.9944 6.63757 4.48438
105 Ar 10.8558 6.66111 8.89158
106 Ar 10.9507 11.0752 -0.0993636
107 Ar 10.9843 11.0097 4.51654
108 Ar 11.1456 11.1452 8.98108
ITEM: TIMESTEP
92070
ITEM: NUMBER OF ATOMS
108
ITEM: BOX BOUNDS pp pp pp
0.0000000000000000e+00 1.3349999400000000e+01
0.0000000000000000e+00 1.3349999400000000e+01
0.0000000000000000e+00 1.3349999400000000e+01
ITEM: ATOMS id element xu yu zu
1 Ar -0.0941076 -0.11553 -0.0900594
2 Ar -0.0611823 -0.14505 4.52182
3 Ar -0.196174 -0.0257672 8.85343
4 Ar 0.0410122 4.57294 0.190478
5 Ar 0.0455245 4.52046 4.68814
6 Ar -0.112489 4.63366 8.87936
7 Ar -0.228247 8.91766 0.275657
8 Ar 0.0449407 9.10878 4.33009
9 Ar -0.0596287 8.77988 8.97628
10 Ar 4.54834 0.0128373 -0.0409089
11 Ar 4.45424 -0.0318807 4.56068
12 Ar 4.52263 -0.0406576 8.95458
13 Ar 4.24357 4.23748 -0.148196
14 Ar 4.46948 4.36053 4.45322
15 Ar 4.60666 4.4933 8.70438
16 Ar 4.4047 8.97888 -0.0414223
17 Ar 4.41227 9.09717 4.299
18 Ar 4.3245 9.02766 8.99984
19 Ar 8.86585 0.185645 0.218402
20 Ar 9.01264 0.185216 4.32032
21 Ar 8.83356 -0.0216038 8.75513
22 Ar 8.8849 4.38267 -0.138613
23 Ar 8.91293 4.36627 4.23482
24 Ar 8.74182 4.37737 8.78969
25 Ar 8.85914 8.8156 -0.00535704
26 Ar 8.8669 8.7242 4.27704
27 Ar 8.91511 8.79401 8.95424
28 Ar 0.0519118 2.10279 2.22269
29 Ar -0.0284084 2.08151 6.6686
30 Ar 0.0459991 2.38561 11.0556
31 Ar -0.0548151 6.70772 2.50125
32 Ar 0.0597186 6.73602 6.63176
33 Ar 0.177464 6.71917 11.2886
34 Ar -0.050569 11.2508 2.25926
35 Ar 0.0556782 11.2665 6.66591
36 Ar -0.0064652 10.8952 11.1831
37 Ar 4.37183 2.20621 2.2563
38 Ar 4.56324 2.22928 6.77363
39 Ar 4.47989 2.20054 11.0686
40 Ar 4.34433 6.55777 2.0716
41 Ar 4.62036 6.80807 6.53761
42 Ar 4.35927 6.53167 11.225
43 Ar 4.47658 11.2681 2.131
44 Ar 4.48305 11.2069 6.49405
45 Ar 4.5812 11.2076 11.1106
46 Ar 9.11232 2.32409 2.14979
47 Ar 8.95929 2.46164 6.68438
48 Ar 9.02886 2.26996 11.0542
49 Ar 8.88301 6.51135 2.15804
50 Ar 8.82494 6.57407 6.47636
51 Ar 8.69248 6.53688 11.0652
52 Ar 9.05304 11.0211 2.27184
53 Ar 9.01653 11.1236 6.67044
54 Ar 8.8886 11.1555 11.1548
55 Ar 2.28 -0.0650314 2.22167
56 Ar 2.26886 0.106296 6.67206
57 Ar 2.22675 -0.122835 11.066
58 Ar 2.22241 4.24664 2.39343
59 Ar 2.41445 4.45537 6.80287
60 Ar 2.04956 4.3782 11.0729
61 Ar 2.20547 8.954 2.18356
62 Ar 2.29975 8.99525 6.7124
63 Ar 2.2104 9.05298 11.335
64 Ar 6.6792 0.0018433 2.30858
65 Ar 6.85323 0.0526869 6.54864
66 Ar 6.91271 0.0114891 11.2475
67 Ar 6.68933 4.35341 2.19943
68 Ar 6.71305 4.48299 6.52775
69 Ar 6.77313 4.19194 11.1518
70 Ar 6.69825 8.85997 2.15799
71 Ar 6.54479 8.95632 6.7462
72 Ar 6.88327 8.87295 11.0219
73 Ar 11.2997 0.120143 2.29173
74 Ar 11.094 0.0455325 6.49842
75 Ar 11.2215 0.0289729 11.2052
76 Ar 11.2282 4.45444 2.26177
77 Ar 11.2385 4.45152 6.60369
78 Ar 11.1064 4.50594 11.1292
79 Ar 11.0953 9.01094 2.18978
80 Ar 11.2325 8.74501 6.68891
81 Ar 11.104 8.8594 11.1583
82 Ar 2.02421 2.04303 -0.106511
83 Ar 2.21965 2.09984 4.62574
84 Ar 2.28253 2.12173 8.87494
85 Ar 2.20921 6.84878 0.19156
86 Ar 2.22334 6.89967 4.48859
87 Ar 2.27873 6.76959 8.98951
88 Ar 2.30497 11.101 0.0874265
89 Ar 2.0836 11.1785 4.44036
90 Ar 2.1451 11.2094 8.9938
91 Ar 6.50756 2.27746 -0.0143939
92 Ar 6.66786 2.15856 4.38614
93 Ar 6.67435 2.22007 9.05706
94 Ar 6.48619 6.42147 -0.0664279
95 Ar 6.59996 6.68157 4.31121
96 Ar 6.44355 6.66647 8.97659
97 Ar 6.70274 10.9836 0.00513103
98 Ar 6.80117 11.1983 4.35076
99 Ar 6.62401 11.1459 8.82601
100 Ar 11.3118 2.35572 -0.113757
101 Ar 11.259 2.24309 4.58907
102 Ar 11.112 2.4045 8.92584
103 Ar 11.0923 6.61986 0.109157
104 Ar 10.9864 6.65171 4.51114
105 Ar 10.8544 6.66083 8.89096
106 Ar 10.9216 11.0704 -0.0864216
107 Ar 10.9833 11.0114 4.52202
108 Ar 11.1576 11.1691 8.98574
ITEM: TIMESTEP
92080
ITEM: NUMBER OF ATOMS
108
ITEM: BOX BOUNDS pp pp pp
0.0000000000000000e+00 1.3349999400000000e+01
0.0000000000000000e+00 1.3349999400000000e+01
0.0000000000000000e+00 1.3349999400000000e+01
ITEM: ATOMS id element xu yu zu
1 Ar -0.0991711 -0.108627 -0.08128
2 Ar -0.0685442 -0.141567 4.51307
3 Ar -0.198634 -0.0357934 8.85256
4 Ar 0.0531408 4.56617 0.191648
5 Ar 0.0586013 4.51597 4.6881
6 Ar -0.109497 4.63578 8.87571
7 Ar -0.247253 8.92164 0.300819
8 Ar 0.0455453 9.10423 4.34324
9 Ar -0.0642772 8.79364 8.97186
10 Ar 4.54816 0.0326604 -0.0387956
11 Ar 4.45502 -0.0262704 4.54137
12 Ar 4.52714 -0.0393684 8.94042
13 Ar 4.26356 4.22743 -0.159004
14 Ar 4.47187 4.35017 4.45828
15 Ar 4.59159 4.49794 8.70909
16 Ar 4.43265 8.97539 -0.0317877
17 Ar 4.42937 9.09856 4.29188
18 Ar 4.30419 9.03202 8.99481
19 Ar 8.87216 0.195982 0.212403
20 Ar 9.01568 0.186936 4.33185
21 Ar 8.87118 0.0011819 8.7323
22 Ar 8.9 4.38173 -0.1325
23 Ar 8.9115 4.36096 4.24651
24 Ar 8.74372 4.3644 8.78144
25 Ar 8.86231 8.81557 -0.0205905
26 Ar 8.85878 8.73266 4.2931
27 Ar 8.89188 8.80001 8.93554
28 Ar 0.0713125 2.07116 2.22129
29 Ar -0.00242161 2.09363 6.67657
30 Ar 0.042101 2.36605 11.0644
31 Ar -0.0421894 6.71777 2.51076
32 Ar 0.0550653 6.74294 6.65452
33 Ar 0.151287 6.72842 11.2992
34 Ar -0.0500414 11.2303 2.24686
35 Ar 0.0610529 11.2704 6.63212
36 Ar -0.0129554 10.9026 11.194
37 Ar 4.36585 2.19341 2.26478
38 Ar 4.56673 2.23309 6.75009