ITEM: TIMESTEP
30000
ITEM: NUMBER OF ATOMS
108
ITEM: BOX BOUNDS pp pp pp
0.0000000000000000e+00 1.3349999400000000e+01
0.0000000000000000e+00 1.3349999400000000e+01
0.0000000000000000e+00 1.3349999400000000e+01
ITEM: ATOMS id element xu yu zu
1 Ar -0.0242088 -0.0457057 0.0781056
2 Ar -0.0739227 -0.0555307 4.44686
3 Ar 0.0464368 -0.0554895 8.76747
4 Ar 0.0104877 4.36641 0.0843109
5 Ar 0.18901 4.46375 4.5817
6 Ar -0.0273785 4.45195 8.7641
7 Ar 0.100555 9.08631 0.020548
8 Ar 0.0786818 8.96736 4.39103
9 Ar -0.187831 8.97387 8.91593
10 Ar 4.64651 0.189857 -0.0426903
11 Ar 4.63306 -0.063469 4.25368
12 Ar 4.41688 0.0936624 9.01488
13 Ar 4.44609 4.485 0.170116
14 Ar 4.2478 4.60599 4.47541
15 Ar 4.73904 4.52624 8.91676
16 Ar 4.38171 8.75577 -0.0250133
17 Ar 4.34091 9.08044 4.31645
18 Ar 4.39734 8.70809 8.95698
19 Ar 8.94202 -0.124844 -0.156857
20 Ar 9.107 -0.00985658 4.45233
21 Ar 8.97612 -0.159796 9.02359
22 Ar 8.95364 4.40582 0.032865
23 Ar 8.83798 4.23106 4.36716
24 Ar 8.8425 4.35116 8.76426
25 Ar 8.85657 8.82014 -0.146673
26 Ar 8.79273 8.99446 4.50149
27 Ar 8.84935 8.7647 8.92706
28 Ar 0.0129317 2.15029 2.2973
29 Ar 0.178655 2.29488 6.73075
30 Ar 0.0563532 2.07892 11.1449
31 Ar -0.173523 6.69431 2.14009
32 Ar -0.00465391 6.75366 6.71566
33 Ar -0.16704 6.72986 11.276
34 Ar 0.0366756 11.1335 2.37229
35 Ar 0.127738 11.1484 6.65897
36 Ar -0.0477817 11.1155 11.2389
37 Ar 4.40114 2.29227 2.25613
38 Ar 4.56685 2.23107 6.58146
39 Ar 4.64281 2.34639 11.1164
40 Ar 4.45727 6.8066 2.25158
41 Ar 4.24416 6.8114 6.60702
42 Ar 4.41865 6.64813 11.3947
43 Ar 4.55959 11.2385 1.988
44 Ar 4.26592 11.2506 6.7384
45 Ar 4.31596 11.0787 11.2995
46 Ar 8.81716 2.15757 2.27777
47 Ar 8.96036 2.06338 6.58319
48 Ar 8.89757 2.17799 11.0909
49 Ar 9.04781 6.55672 2.42944
50 Ar 8.94735 6.54188 6.67077
51 Ar 9.09242 6.43748 11.0946
52 Ar 8.91995 11.1593 2.22533
53 Ar 8.8939 11.2576 6.62263
54 Ar 8.90119 11.0379 10.928
55 Ar 2.31024 0.0468995 2.37099
56 Ar 2.2205 0.0401267 6.63308
57 Ar 2.33235 -0.0727105 11.3026
58 Ar 2.12203 4.46697 2.24705
59 Ar 2.28745 4.43404 6.82132
60 Ar 2.09385 4.50156 11.2228
61 Ar 2.24762 8.8722 2.24136
62 Ar 2.01615 8.89305 6.86244
63 Ar 2.37646 8.88063 11.0707
64 Ar 6.8228 -0.129832 2.04172
65 Ar 6.60572 -0.13578 6.91621
66 Ar 6.66644 0.229899 11.0926
67 Ar 6.52675 4.45062 2.45901
68 Ar 6.52887 4.46249 6.44113
69 Ar 6.71927 4.53808 11.2092
70 Ar 6.67331 9.04912 2.00084
71 Ar 6.62938 9.08711 6.72272
72 Ar 6.53698 8.83253 11.214
73 Ar 11.0663 0.109151 2.07501
74 Ar 11.2873 0.066445 6.56106
75 Ar 11.2985 -0.0573554 11.0453
76 Ar 11.1202 4.45833 2.12251
77 Ar 11.1311 4.48336 6.3683
78 Ar 11.2219 4.30704 11.0896
79 Ar 10.8593 8.92894 2.1705
80 Ar 11.0618 8.9189 6.60881
81 Ar 10.8808 8.76542 11.0356
82 Ar 2.23218 2.15267 -0.0208968
83 Ar 2.33521 2.18244 4.42314
84 Ar 2.10287 2.26149 8.99696
85 Ar 1.90884 6.72731 0.108494
86 Ar 2.19561 6.63281 4.45454
87 Ar 2.20944 6.48948 8.96032
88 Ar 2.2919 11.2426 0.143393
89 Ar 2.39507 11.0886 4.44431
90 Ar 2.15711 11.1152 8.99346
91 Ar 6.73036 2.27279 0.00545787
92 Ar 6.68626 2.07476 4.65665
93 Ar 6.7018 2.39427 8.8233
94 Ar 6.76253 6.67805 0.222484
95 Ar 6.67312 6.94263 4.51305
96 Ar 6.70968 6.57544 8.81987
97 Ar 6.92539 11.1821 -0.377646
98 Ar 6.63741 11.0945 4.3712
99 Ar 6.42626 10.9728 9.01807
100 Ar 11.1655 2.21753 -0.11731
101 Ar 11.2852 2.34403 4.32357
102 Ar 11.0594 2.18632 8.90503
103 Ar 11.1013 6.68069 -0.0186251
104 Ar 11.1391 6.81817 4.40095
105 Ar 10.8457 6.55702 8.81257
106 Ar 11.2481 11.1435 -0.00968438
107 Ar 11.1714 11.1439 4.48386
108 Ar 11.1215 11.1514 8.88458
ITEM: TIMESTEP
30010
ITEM: NUMBER OF ATOMS
108
ITEM: BOX BOUNDS pp pp pp
0.0000000000000000e+00 1.3349999400000000e+01
0.0000000000000000e+00 1.3349999400000000e+01
0.0000000000000000e+00 1.3349999400000000e+01
ITEM: ATOMS id element xu yu zu
1 Ar 0.00182104 -0.0324478 0.0552624
2 Ar -0.0696328 -0.056317 4.43387
3 Ar 0.0498422 -0.0454406 8.77359
4 Ar 0.0340036 4.3517 0.0861723
5 Ar 0.194336 4.46802 4.56385
6 Ar -0.0358586 4.4355 8.77722
7 Ar 0.126261 9.09905 0.0333414
8 Ar 0.0779044 8.96137 4.40514
9 Ar -0.204499 8.95915 8.91791
10 Ar 4.64152 0.206679 -0.0521161
11 Ar 4.6404 -0.0729141 4.23237
12 Ar 4.41607 0.0813418 9.00936
13 Ar 4.4673 4.49401 0.170973
14 Ar 4.24131 4.62404 4.46761
15 Ar 4.72418 4.53608 8.90903
16 Ar 4.35975 8.73936 -0.0445465
17 Ar 4.32078 9.08709 4.31695
18 Ar 4.40143 8.70545 8.98934
19 Ar 8.93576 -0.127449 -0.160914
20 Ar 9.10374 -0.0280682 4.44552
21 Ar 8.96922 -0.164232 9.0161
22 Ar 8.96875 4.3929 0.0550293
23 Ar 8.83419 4.20958 4.36672
24 Ar 8.83324 4.37114 8.73899
25 Ar 8.85807 8.81014 -0.142603
26 Ar 8.80007 9.01163 4.49377
27 Ar 8.84408 8.75854 8.94187
28 Ar 0.0148688 2.16777 2.29137
29 Ar 0.210824 2.29889 6.74909
30 Ar 0.0408475 2.06064 11.1478
31 Ar -0.174593 6.71595 2.15246
32 Ar -0.00111912 6.76749 6.7162
33 Ar -0.185412 6.74646 11.2632
34 Ar 0.0353878 11.1355 2.36163
35 Ar 0.125456 11.1627 6.67009
36 Ar -0.0545049 11.1194 11.2536
37 Ar 4.40325 2.28874 2.2614
38 Ar 4.58354 2.23473 6.57379
39 Ar 4.64664 2.33588 11.1284
40 Ar 4.46389 6.80872 2.25454
41 Ar 4.24208 6.80651 6.60883
42 Ar 4.4432 6.63371 11.394
43 Ar 4.55508 11.2455 2.01047
44 Ar 4.26838 11.231 6.72977
45 Ar 4.31929 11.0663 11.3074
46 Ar 8.81529 2.16543 2.27934
47 Ar 8.94541 2.081 6.5977
48 Ar 8.92532 2.18556 11.0852
49 Ar 9.03477 6.56784 2.42672
50 Ar 8.9551 6.53774 6.64276
51 Ar 9.09208 6.43427 11.0976
52 Ar 8.91632 11.1644 2.23504
53 Ar 8.89027 11.2421 6.61968
54 Ar 8.89524 11.0383 10.92
55 Ar 2.32747 0.055385 2.37565
56 Ar 2.22889 0.030764 6.63674
57 Ar 2.33059 -0.0795934 11.277
58 Ar 2.15691 4.46244 2.24557
59 Ar 2.2879 4.43892 6.83449
60 Ar 2.07723 4.49731 11.2099
61 Ar 2.22612 8.87247 2.25482
62 Ar 2.00476 8.89228 6.84507
63 Ar 2.38125 8.88137 11.0874
64 Ar 6.80007 -0.119019 2.04097
65 Ar 6.61254 -0.15228 6.94625
66 Ar 6.67077 0.219422 11.0887
67 Ar 6.5178 4.4374 2.45266
68 Ar 6.50541 4.45196 6.42902
69 Ar 6.72178 4.51498 11.2123
70 Ar 6.68273 9.05002 1.99941
71 Ar 6.62649 9.10411 6.7157
72 Ar 6.52343 8.82108 11.2299
73 Ar 11.0701 0.108021 2.06352
74 Ar 11.2823 0.089135 6.55416
75 Ar 11.3085 -0.0595465 11.0436
76 Ar 11.132 4.44122 2.14627
77 Ar 11.1431 4.47123 6.34369
78 Ar 11.2194 4.31235 11.0941
79 Ar 10.8628 8.91721 2.1517
80 Ar 11.0589 8.92323 6.61649
81 Ar 10.8679 8.79601 11.0332
82 Ar 2.23772 2.16872 0.00538245
83 Ar 2.35483 2.20683 4.40289
84 Ar 2.10939 2.26045 8.98071
85 Ar 1.90224 6.73241 0.116212
86 Ar 2.20067 6.63897 4.46073
87 Ar 2.22112 6.48742 8.97042
88 Ar 2.30091 11.2499 0.134268
89 Ar 2.36523 11.0749 4.44033
90 Ar 2.13668 11.1172 9.01599
91 Ar 6.74075 2.26559 0.0173378
92 Ar 6.68919 2.09181 4.64489
93 Ar 6.69946 2.39687 8.79898
94 Ar 6.76364 6.67298 0.264794
95 Ar 6.67102 6.92628 4.50592
96 Ar 6.71405 6.57374 8.78662
97 Ar 6.92796 11.1687 -0.372909
98 Ar 6.61705 11.0953 4.37687
99 Ar 6.43894 10.9795 9.02133
100 Ar 11.1611 2.22074 -0.11292
101 Ar 11.2808 2.34645 4.33308
102 Ar 11.0648 2.19524 8.91293
103 Ar 11.086 6.6822 -0.0127657
104 Ar 11.1246 6.81913 4.41257
105 Ar 10.847 6.55073 8.82585
106 Ar 11.2144 11.1421 -0.0230296
107 Ar 11.1819 11.1265 4.45966
108 Ar 11.1304 11.163 8.87753
ITEM: TIMESTEP
30020
ITEM: NUMBER OF ATOMS
108
ITEM: BOX BOUNDS pp pp pp
0.0000000000000000e+00 1.3349999400000000e+01
0.0000000000000000e+00 1.3349999400000000e+01
0.0000000000000000e+00 1.3349999400000000e+01
ITEM: ATOMS id element xu yu zu
1 Ar 0.0289992 -0.018727 0.0332953
2 Ar -0.0628518 -0.0554534 4.42039
3 Ar 0.0530204 -0.0345761 8.78192
4 Ar 0.0560719 4.33698 0.0869104
5 Ar 0.198086 4.47244 4.5443
6 Ar -0.0466617 4.42042 8.79264
7 Ar 0.149596 9.11021 0.0462585
8 Ar 0.0757337 8.95402 4.41998
9 Ar -0.21997 8.94258 8.92167
10 Ar 4.63425 0.221149 -0.0606493
11 Ar 4.64667 -0.0814037 4.21457
12 Ar 4.41413 0.0688963 9.00345
13 Ar 4.4875 4.50277 0.170329
14 Ar 4.23727 4.63991 4.45936
15 Ar 4.70366 4.54528 8.90163
16 Ar 4.33781 8.72613 -0.0607408
17 Ar 4.30425 9.09058 4.3198
18 Ar 4.40607 8.70375 9.01993
19 Ar 8.93147 -0.127334 -0.165032
20 Ar 9.0978 -0.0457661 4.43781
21 Ar 8.96079 -0.165189 9.00609
22 Ar 8.98259 4.38024 0.0774005
23 Ar 8.83103 4.1913 4.36787
24 Ar 8.82508 4.39027 8.71422
25 Ar 8.86013 8.80079 -0.137418
26 Ar 8.80861 9.02812 4.48563
27 Ar 8.83677 8.75412 8.95413
28 Ar 0.0180324 2.1858 2.28407
29 Ar 0.23948 2.30129 6.76461
30 Ar 0.0258266 2.04404 11.1501
31 Ar -0.175115 6.73808 2.16743
32 Ar 0.000848601 6.77965 6.71668
33 Ar -0.202162 6.76308 11.247
34 Ar 0.0335815 11.138 2.34872
35 Ar 0.121056 11.1763 6.68036
36 Ar -0.0589638 11.1223 11.2652
37 Ar 4.40757 2.28457 2.26641
38 Ar 4.59583 2.23678 6.56859
39 Ar 4.64606 2.3271 11.1399
40 Ar 4.46985 6.8095 2.25807
41 Ar 4.24299 6.80213 6.6114
42 Ar 4.46734 6.61612 11.39
43 Ar 4.55055 11.2503 2.03265
44 Ar 4.27239 11.2093 6.72177
45 Ar 4.32566 11.0553 11.3138
46 Ar 8.81402 2.17304 2.27911
47 Ar 8.93079 2.09918 6.6141
48 Ar 8.95311 2.19424 11.0796
49 Ar 9.01782 6.57952 2.42199
50 Ar 8.96014 6.53533 6.61166
51 Ar 9.08688 6.43161 11.102
52 Ar 8.91318 11.1693 2.24374
53 Ar 8.88717 11.2255 6.61837
54 Ar 8.89031 11.0386 10.9133
55 Ar 2.34294 0.0625832 2.37782
56 Ar 2.23865 0.0223835 6.63992
57 Ar 2.32728 -0.0845015 11.2495
58 Ar 2.19214 4.4584 2.24324
59 Ar 2.28983 4.44355 6.84624
60 Ar 2.06239 4.4922 11.1969
61 Ar 2.2041 8.87359 2.26721
62 Ar 1.99706 8.89187 6.82686
63 Ar 2.38058 8.88081 11.1048
64 Ar 6.77733 -0.106324 2.04179
65 Ar 6.62009 -0.16762 6.97388
66 Ar 6.67596 0.205734 11.0829
67 Ar 6.51072 4.42452 2.44561
68 Ar 6.48457 4.44411 6.41788
69 Ar 6.72523 4.49251 11.2159
70 Ar 6.69253 9.05101 2.00018
71 Ar 6.62289 9.11898 6.7086
72 Ar 6.51212 8.80752 11.2438
73 Ar 11.0743 0.10541 2.05374
74 Ar 11.276 0.111592 6.54982
75 Ar 11.3158 -0.0611255 11.0429
76 Ar 11.1446 4.42316 2.17166
77 Ar 11.1552 4.45856 6.32325
78 Ar 11.2173 4.31866 11.0983
79 Ar 10.8699 8.90633 2.13317
80 Ar 11.0562 8.92798 6.62525
81 Ar 10.8599 8.82844 11.032
82 Ar 2.24385 2.18549 0.0318388
83 Ar 2.3729 2.23135 4.38502
84 Ar 2.12025 2.25889 8.96577
85 Ar 1.90014 6.73631 0.122215
86 Ar 2.2037 6.64852 4.46616
87 Ar 2.23226 6.48797 8.98186
88 Ar 2.30858 11.2562 0.12531
89 Ar 2.33223 11.0643 4.43607
90 Ar 2.11764 11.1192 9.03836
91 Ar 6.75214 2.25994 0.0304965
92 Ar 6.69271 2.10724 4.62888
93 Ar 6.69793 2.39595 8.77493
94 Ar 6.76533 6.66568 0.304773
95 Ar 6.66789 6.90844 4.49816
96 Ar 6.71894 6.57487 8.75399
97 Ar 6.92591 11.1548 -0.364174
98 Ar 6.5977 11.0972 4.38348
99 Ar 6.4528 10.9878 9.02561
100 Ar 11.1559 2.22303 -0.107028
101 Ar 11.2752 2.34653 4.34362
102 Ar 11.0716 2.20418 8.91888
103 Ar 11.0706 6.68365 -0.00599859
104 Ar 11.1115 6.81907 4.42532
105 Ar 10.8549 6.54452 8.83854
106 Ar 11.178 11.1394 -0.0356486
107 Ar 11.1916 11.108 4.43498
108 Ar 11.1399 11.1736 8.86887
ITEM: TIMESTEP
30030
ITEM: NUMBER OF ATOMS
108
ITEM: BOX BOUNDS pp pp pp
0.0000000000000000e+00 1.3349999400000000e+01
0.0000000000000000e+00 1.3349999400000000e+01
0.0000000000000000e+00 1.3349999400000000e+01
ITEM: ATOMS id element xu yu zu
1 Ar 0.0567832 -0.00487762 0.0127894
2 Ar -0.0537684 -0.0528311 4.40664
3 Ar 0.0558892 -0.022944 8.79223
4 Ar 0.0762093 4.3228 0.0866333
5 Ar 0.200447 4.47701 4.5233
6 Ar -0.0594934 4.40711 8.81005
7 Ar 0.170019 9.1198 0.0589785
8 Ar 0.0718762 8.94555 4.43534
9 Ar -0.233927 8.9245 8.92711
10 Ar 4.62471 0.232877 -0.0682232
11 Ar 4.65168 -0.0885254 4.20105
12 Ar 4.4111 0.0564185 8.99726
13 Ar 4.50645 4.51102 0.168115
14 Ar 4.23582 4.65347 4.45089
15 Ar 4.67816 4.55355 8.89488
16 Ar 4.31624 8.71609 -0.0727729
17 Ar 4.29149 9.0908 4.3249
18 Ar 4.4112 8.70304 9.04819
19 Ar 8.92896 -0.12447 -0.169128
20 Ar 9.08926 -0.0625572 4.42954
21 Ar 8.95128 -0.162605 8.99378
22 Ar 8.99497 4.36817 0.099682
23 Ar 8.82851 4.17678 4.37054
24 Ar 8.81808 4.40831 8.69024
25 Ar 8.8625 8.79217 -0.131323
26 Ar 8.81801 9.04357 4.47708
27 Ar 8.82744 8.75127 8.96359
28 Ar 0.0223111 2.2039 2.27575
29 Ar 0.264205 2.30201 6.77658
30 Ar 0.0118582 2.02964 11.1516
31 Ar -0.175193 6.76015 2.18466
32 Ar 0.00112132 6.78955 6.71721
33 Ar -0.217178 6.77958 11.2282
34 Ar 0.0312218 11.141 2.3335
35 Ar 0.114484 11.1893 6.68972
36 Ar -0.0612415 11.124 11.2738
37 Ar 4.41437 2.27983 2.27091
38 Ar 4.60336 2.23684 6.56567
39 Ar 4.6412 2.32019 11.1507
40 Ar 4.47485 6.80927 2.26215
41 Ar 4.24687 6.7986 6.61484
42 Ar 4.49076 6.59537 11.3828
43 Ar 4.54584 11.2527 2.05385
44 Ar 4.27758 11.1857 6.71458
45 Ar 4.33509 11.0461 11.3185
46 Ar 8.81351 2.17989 2.27717
47 Ar 8.91666 2.11742 6.63192
48 Ar 8.98024 2.20377 11.0741
49 Ar 8.99756 6.59133 2.41567
50 Ar 8.96265 6.5347 6.57804
51 Ar 9.07682 6.42953 11.1076
52 Ar 8.91042 11.174 2.2512
53 Ar 8.88487 11.2079 6.61866
54 Ar 8.88623 11.0389 10.9079
55 Ar 2.35621 0.0683587 2.37744
56 Ar 2.2498 0.0150464 6.64236
57 Ar 2.32261 -0.0871236 11.2205
58 Ar 2.22721 4.45529 2.23994
59 Ar 2.29308 4.44808 6.85625
60 Ar 2.04948 4.48623 11.184
61 Ar 2.1821 8.87545 2.27835
62 Ar 1.99327 8.89207 6.80844
63 Ar 2.3742 8.8788 11.1225
64 Ar 6.75515 -0.0920058 2.044
65 Ar 6.6282 -0.181506 6.9984
66 Ar 6.68202 0.189299 11.0754
67 Ar 6.50572 4.41208 2.43811
68 Ar 6.46668 4.43931 6.40784
69 Ar 6.7298 4.47088 11.2198
70 Ar 6.7023 9.05228 2.00322
71 Ar 6.6186 9.13134 6.70152
72 Ar 6.50349 8.79197 11.2556
73 Ar 11.0793 0.101424 2.04568
74 Ar 11.2686 0.133537 6.54788
75 Ar 11.3199 -0.0621832 11.0432
76 Ar 11.158 4.40493 2.19828
77 Ar 11.1675 4.44569 6.30748
78 Ar 11.2157 4.326 11.1025
79 Ar 10.8804 8.89657 2.11516
80 Ar 11.0535 8.93309 6.63504
81 Ar 10.8566 8.86207 11.0323
82 Ar 2.25064 2.20265 0.0577716
83 Ar 2.3891 2.25556 4.37012
84 Ar 2.13556 2.25679 8.95274
85 Ar 1.90237 6.73867 0.126339
86 Ar 2.20456 6.66128 4.47076
87 Ar 2.24252 6.49131 8.99448
88 Ar 2.31507 11.2615 0.116778
89 Ar 2.29653 11.0573 4.43172
90 Ar 2.10024 11.1209 9.06007
91 Ar 6.76444 2.2558 0.0444827
92 Ar 6.69664 2.12041 4.60887
93 Ar 6.69704 2.39176 8.75186
94 Ar 6.76765 6.65617 0.341703
95 Ar 6.66389 6.88962 4.48992
96 Ar 6.7241 6.57868 8.72223
97 Ar 6.91939 11.1406 -0.351494
98 Ar 6.57978 11.1001 4.39092
99 Ar 6.46754 10.9971 9.03104
100 Ar 11.1501 2.22435 -0.0996592
101 Ar 11.2687 2.34372 4.35489
102 Ar 11.0795 2.21305 8.92264
103 Ar 11.0558 6.68477 0.00156115
104 Ar 11.1001 6.81811 4.43872
105 Ar 10.8689 6.53852 8.85019
106 Ar 11.1394 11.1355 -0.0474087
107 Ar 11.2007 11.0889 4.41029
108 Ar 11.1499 11.1833 8.85869
ITEM: TIMESTEP
30040
ITEM: NUMBER OF ATOMS
108
ITEM: BOX BOUNDS pp pp pp
0.0000000000000000e+00 1.3349999400000000e+01
0.0000000000000000e+00 1.3349999400000000e+01
0.0000000000000000e+00 1.3349999400000000e+01
ITEM: ATOMS id element xu yu zu
1 Ar 0.0846639 0.00879418 -0.00573448
2 Ar -0.0426458 -0.0483911 4.39291
3 Ar 0.0583994 -0.0106141 8.8042
4 Ar 0.0939803 4.30974 0.0854268
5 Ar 0.201616 4.48171 4.50115
6 Ar -0.0739339 4.39584 8.82912
7 Ar 0.187043 9.12778 0.0711572
8 Ar 0.0660641 8.93618 4.45101
9 Ar -0.246056 8.90531 8.93403
10 Ar 4.61301 0.241558 -0.0748067
11 Ar 4.6552 -0.0938941 4.19253
12 Ar 4.40707 0.043972 8.99086
13 Ar 4.52393 4.51851 0.164307
14 Ar 4.23701 4.66469 4.44245
15 Ar 4.64856 4.56062 8.88906
16 Ar 4.29546 8.70913 -0.0800723
17 Ar 4.28251 9.08777 4.33213
18 Ar 4.41674 8.70342 9.07367
19 Ar 8.92792 -0.118904 -0.173119
20 Ar 9.07826 -0.0781111 4.42109
21 Ar 8.94118 -0.156526 8.97943
22 Ar 9.00574 4.35701 0.121596
23 Ar 8.82667 4.16647 4.3746
24 Ar 8.81229 4.42509 8.66736
25 Ar 8.86492 8.78437 -0.124535
26 Ar 8.82792 9.05763 4.46816
27 Ar 8.81629 8.74976 8.9701
28 Ar 0.027584 2.22161 2.26675
29 Ar 0.284682 2.30106 6.78447
30 Ar -0.000580536 2.01797 11.1523
31 Ar -0.174887 6.78162 2.20373
32 Ar -0.000346879 6.79669 6.71792
33 Ar -0.230362 6.79579 11.2075
34 Ar 0.0282633 11.1446 2.31602
35 Ar 0.105763 11.2014 6.69813
36 Ar -0.0615173 11.1244 11.2794
37 Ar 4.42385 2.2746 2.27467
38 Ar 4.60598 2.23462 6.56481
39 Ar 4.63229 2.31521 11.1603
40 Ar 4.47862 6.80841 2.26674
41 Ar 4.25365 6.79621 6.61921
42 Ar 4.51317 6.57166 11.3726
43 Ar 4.54084 11.2522 2.07353
44 Ar 4.28358 11.1607 6.70831
45 Ar 4.34743 11.0389 11.3213
46 Ar 8.81399 2.18552 2.27365
47 Ar 8.90316 2.1353 6.65065
48 Ar 9.00607 2.21389 11.0687
49 Ar 8.97473 6.60294 2.40825
50 Ar 8.96284 6.53587 6.5426
51 Ar 9.06207 6.42814 11.1144
52 Ar 8.9079 11.1785 2.25717
53 Ar 8.88357 11.1898 6.62052
54 Ar 8.88281 11.0397 10.9039
55 Ar 2.36694 0.0726439 2.37451
56 Ar 2.26235 0.00873846 6.64386
57 Ar 2.31682 -0.087244 11.1907
58 Ar 2.26161 4.45354 2.23557
59 Ar 2.29742 4.4527 6.86424
60 Ar 2.03863 4.47939 11.1715
61 Ar 2.16069 8.87798 2.28814
62 Ar 1.99349 8.89309 6.79042
63 Ar 2.36208 8.87529 11.1401
64 Ar 6.73406 -0.0763679 2.04741
65 Ar 6.63665 -0.193701 7.01913
66 Ar 6.68887 0.170642 11.0662
67 Ar 6.50297 4.40016 2.4304
68 Ar 6.45197 4.43778 6.39901
69 Ar 6.73559 4.45018 11.2235
70 Ar 6.7117 9.05397 2.0086
71 Ar 6.61367 9.14082 6.69453
72 Ar 6.49794 8.77461 11.2653
73 Ar 11.0849 0.0961671 2.03933
74 Ar 11.2601 0.154674 6.54814
75 Ar 11.3204 -0.0628498 11.0443
76 Ar 11.172 4.38726 2.22572
77 Ar 11.1798 4.43299 6.2968
78 Ar 11.2146 4.33433 11.1068
79 Ar 10.894 8.88814 2.09796
80 Ar 11.0509 8.93851 6.64578
81 Ar 10.8581 8.89625 11.0341
82 Ar 2.25818 2.21985 0.0825417
83 Ar 2.40311 2.27901 4.35863
84 Ar 2.15532 2.25418 8.94213
85 Ar 1.90862 6.73924 0.128501
86 Ar 2.20325 6.67694 4.47451
87 Ar 2.25156 6.49755 9.00807
88 Ar 2.32056 11.266 0.108841
89 Ar 2.25873 11.0539 4.42747
90 Ar 2.08465 11.1218 9.0806
91 Ar 6.77748 2.25304 0.0587771
92 Ar 6.70074 2.13084 4.58526
93 Ar 6.69657 2.38469 8.73047
94 Ar 6.77056 6.64457 0.374892
95 Ar 6.65914 6.87029 4.48135
96 Ar 6.72925 6.58492 8.69154
97 Ar 6.9087 11.1263 -0.33501
98 Ar 6.56371 11.1036 4.39907
99 Ar 6.48285 11.0068 9.03769
100 Ar 11.144 2.22466 -0.0908711
101 Ar 11.2616 2.33753 4.36654
102 Ar 11.0885 2.22176 8.92404
103 Ar 11.042 6.68528 0.00974934
104 Ar 11.0904 6.81636 4.45228
105 Ar 10.8883 6.53289 8.86048
106 Ar 11.0996 11.1304 -0.058224
107 Ar 11.209 11.0696 4.38602
108 Ar 11.1602 11.192 8.84713
ITEM: TIMESTEP
30050
ITEM: NUMBER OF ATOMS
108
ITEM: BOX BOUNDS pp pp pp
0.0000000000000000e+00 1.3349999400000000e+01
0.0000000000000000e+00 1.3349999400000000e+01
0.0000000000000000e+00 1.3349999400000000e+01
ITEM: ATOMS id element xu yu zu
1 Ar 0.112176 0.0220189 -0.0218418
2 Ar -0.0298034 -0.042118 4.37946
3 Ar 0.0605325 0.00231949 8.81749
4 Ar 0.109004 4.29832 0.083352
5 Ar 0.201794 4.48655 4.47816
6 Ar -0.08945 4.38675 8.84941
7 Ar 0.200243 9.13405 0.0824422
8 Ar 0.0580741 8.9262 4.4668
9 Ar -0.256048 8.88549 8.94213
10 Ar 4.59933 0.246977 -0.0804036
11 Ar 4.65695 -0.0971882 4.18956
12 Ar 4.40217 0.0315868 8.98432
13 Ar 4.53976 4.52499 0.158922
14 Ar 4.24083 4.67363 4.43434
15 Ar 4.61588 4.56625 8.8844
16 Ar 4.27588 8.70503 -0.0823464
17 Ar 4.27715 9.0817 4.34129
18 Ar 4.42255 8.70493 9.09608
19 Ar 8.92802 -0.110748 -0.176918
20 Ar 9.06496 -0.0921631 4.41284
21 Ar 8.93102 -0.147089 8.96341
22 Ar 9.01484 4.34707 0.142885
23 Ar 8.82559 4.16066 4.37993
24 Ar 8.80776 4.44057 8.64584
25 Ar 8.86714 8.77744 -0.117268
26 Ar 8.83804 9.07002 4.45889
27 Ar 8.80363 8.74938 8.97364
28 Ar 0.0337327 2.23849 2.25748
29 Ar 0.300731 2.29852 6.78792
30 Ar -0.0111239 2.00951 11.152
31 Ar -0.174209 6.80195 2.22415
32 Ar -0.00351258 6.8007 6.71892
33 Ar -0.241627 6.8115 11.1855
34 Ar 0.0246537 11.149 2.29633
35 Ar 0.0949851 11.2127 6.70554
36 Ar -0.0600517 11.1234 11.2822
37 Ar 4.4361 2.26891 2.2775
38 Ar 4.60374 2.22995 6.5657
39 Ar 4.61969 2.31214 11.1686
40 Ar 4.48092 6.80724 2.27176
41 Ar 4.26315 6.79515 6.62451
42 Ar 4.53435 6.54536 11.3596
43 Ar 4.53542 11.2485 2.09121
44 Ar 4.29002 11.1345 6.70311
45 Ar 4.36241 11.0338 11.3223
46 Ar 8.8157 2.18957 2.26877
47 Ar 8.89041 2.1524 6.66972
48 Ar 9.03003 2.22438 11.0632
49 Ar 8.95016 6.61406 2.40028
50 Ar 8.96089 6.53882 6.50608
51 Ar 9.04296 6.42757 11.1222
52 Ar 8.90551 11.1828 2.26143
53 Ar 8.88345 11.1715 6.62388
54 Ar 8.87982 11.0411 10.9015
55 Ar 2.37492 0.0754376 2.3691
56 Ar 2.27619 0.00338282 6.6443
57 Ar 2.31017 -0.084737 11.1605
58 Ar 2.29485 4.45353 2.23007
59 Ar 2.30253 4.45757 6.87
60 Ar 2.0299 4.47172 11.1594
61 Ar 2.14042 8.88113 2.29656
62 Ar 1.99769 8.89508 6.77335
63 Ar 2.34434 8.87031 11.157
64 Ar 6.7145 -0.0597554 2.05181
65 Ar 6.64518 -0.204034 7.03546
66 Ar 6.69635 0.150327 11.0558
67 Ar 6.50263 4.38887 2.42271
68 Ar 6.44056 4.43949 6.39154
69 Ar 6.74267 4.43043 11.227
70 Ar 6.72039 9.05611 2.01635
71 Ar 6.60822 9.14713 6.68772
72 Ar 6.49574 8.75565 11.2731
73 Ar 11.0914 0.0897375 2.03469
74 Ar 11.2509 0.174696 6.55038
75 Ar 11.3172 -0.0632783 11.0462
76 Ar 11.1864 4.37087 2.25357
77 Ar 11.1922 4.42077 6.2915
78 Ar 11.2141 4.34366 11.1116
79 Ar 10.9105 8.88122 2.08187
80 Ar 11.0483 8.94414 6.65737
81 Ar 10.8642 8.93029 11.0373
82 Ar 2.2666 2.2368 0.10558
83 Ar 2.41468 2.30128 4.35084
84 Ar 2.17936 2.25112 8.93426
85 Ar 1.91848 6.73776 0.128699
86 Ar 2.19988 6.69504 4.47744
87 Ar 2.25906 6.50678 9.02237
88 Ar 2.32525 11.2699 0.101572
89 Ar 2.21953 11.0541 4.42349
90 Ar 2.07102 11.1214 9.09947
91 Ar 6.79097 2.25151 0.0728114
92 Ar 6.70477 2.13819 4.55864
93 Ar 6.69626 2.37516 8.71141
94 Ar 6.77395 6.63111 0.403683
95 Ar 6.65378 6.8509 4.47256
96 Ar 6.73406 6.59326 8.66214
97 Ar 6.89425 11.1124 -0.31495
98 Ar 6.54986 11.1077 4.40781
99 Ar 6.49844 11.0166 9.04556
100 Ar 11.1379 2.22394 -0.0807518
101 Ar 11.254 2.32759 4.37825
102 Ar 11.0982 2.23019 8.92295
103 Ar 11.0297 6.6849 0.0183627
104 Ar 11.0823 6.81391 4.46543
105 Ar 10.9123 6.52781 8.86915
106 Ar 11.0593 11.1243 -0.0680373
107 Ar 11.2165 11.0505 4.36256
108 Ar 11.1705 11.2 8.83441
ITEM: TIMESTEP
30060
ITEM: NUMBER OF ATOMS
108
ITEM: BOX BOUNDS pp pp pp
0.0000000000000000e+00 1.3349999400000000e+01
0.0000000000000000e+00 1.3349999400000000e+01
0.0000000000000000e+00 1.3349999400000000e+01
ITEM: ATOMS id element xu yu zu
1 Ar 0.1389 0.0345712 -0.0352047
2 Ar -0.0155988 -0.0340324 4.36656
3 Ar 0.0622965 0.0157383 8.83171
4 Ar 0.120963 4.28904 0.0804479
5 Ar 0.201177 4.49154 4.45464
6 Ar -0.105413 4.37989 8.87046
7 Ar 0.209274 9.1385 0.0924906
8 Ar 0.0477483 8.91591 4.48254
9 Ar -0.263615 8.86555 8.95104
10 Ar 4.58394 0.249008 -0.0850519
11 Ar 4.65667 -0.0981865 4.19255
12 Ar 4.39662 0.0192561 8.97769
13 Ar 4.55381 4.53024 0.152024
14 Ar 4.24717 4.68039 4.42681
15 Ar 4.58117 4.57023 8.88103
16 Ar 4.25796 8.70349 -0.0795822
17 Ar 4.27514 9.07288 4.35214
18 Ar 4.42848 8.70768 9.11523
19 Ar 8.92885 -0.100166 -0.18044
20 Ar 9.04959 -0.104513 4.40517
21 Ar 8.92139 -0.134512 8.94608
22 Ar 9.02227 4.33866 0.163308
23 Ar 8.82535 4.15949 4.38636
24 Ar 8.80452 4.4548 8.62597
25 Ar 8.86894 8.77146 -0.109724
26 Ar 8.84807 9.08045 4.44931
27 Ar 8.78987 8.74992 8.97431
28 Ar 0.04065 2.25407 2.24827
29 Ar 0.312323 2.29452 6.78683
30 Ar -0.0195319 2.00468 11.1507
31 Ar -0.173129 6.82064 2.24542
32 Ar -0.00824084 6.80131 6.7203
33 Ar -0.250895 6.82642 11.163
34 Ar 0.0203402 11.1541 2.27456
35 Ar 0.0823161 11.2229 6.71196
36 Ar -0.0571656 11.1211 11.2825
37 Ar 4.45105 2.26281 2.27928
38 Ar 4.59691 2.22279 6.56801
39 Ar 4.60381 2.31091 11.1752
40 Ar 4.48158 6.80604 2.27708
41 Ar 4.27512 6.79554 6.6307
42 Ar 4.55406 6.51701 11.3439
43 Ar 4.52949 11.2416 2.10662
44 Ar 4.29655 11.1077 6.69911
45 Ar 4.37961 11.0308 11.3213
46 Ar 8.81888 2.19173 2.26283
47 Ar 8.87854 2.16839 6.68851
48 Ar 9.05163 2.23503 11.0579
49 Ar 8.92478 6.62455 2.39232
50 Ar 8.95697 6.54351 6.46926
51 Ar 9.01996 6.42795 11.1307
52 Ar 8.90312 11.1869 2.26375
53 Ar 8.88458 11.1532 6.62867
54 Ar 8.87704 11.0433 10.9007
55 Ar 2.38005 0.0768003 2.36134
56 Ar 2.29119 -0.00114667 6.64362
57 Ar 2.30291 -0.0795607 11.1306
58 Ar 2.32648 4.45557 2.22345
59 Ar 2.30801 4.46287 6.87334
60 Ar 2.02333 4.46326 11.1481
61 Ar 2.12183 8.88486 2.30367
62 Ar 2.00569 8.89815 6.75774
63 Ar 2.32137 8.86398 11.173
64 Ar 6.69684 -0.042559 2.05699
65 Ar 6.65349 -0.212404 7.04682
66 Ar 6.70423 0.12894 11.0444
67 Ar 6.50478 4.37829 2.41524
68 Ar 6.43249 4.44422 6.38555
69 Ar 6.75106 4.41156 11.2298
70 Ar 6.72811 9.05866 2.02649
71 Ar 6.6024 9.15004 6.68116
72 Ar 6.49709 8.73531 11.2792
73 Ar 11.0987 0.0822249 2.03175
74 Ar 11.241 0.19328 6.55436
75 Ar 11.3101 -0.0636234 11.0489
76 Ar 11.201 4.35637 2.28141
77 Ar 11.2046 4.40932 6.29176
78 Ar 11.2141 4.35396 11.117
79 Ar 10.9297 8.87595 2.06714
80 Ar 11.0457 8.94985 6.66969
81 Ar 10.8744 8.96353 11.0419
82 Ar 2.27598 2.25324 0.12639
83 Ar 2.42363 2.32196 4.34688
84 Ar 2.20736 2.24772 8.92923
85 Ar 1.93147 6.73408 0.126994
86 Ar 2.19465 6.71504 4.47962
87 Ar 2.26472 6.51903 9.0371
88 Ar 2.32933 11.2731 0.094956
89 Ar 2.17973 11.0579 4.41992
90 Ar 2.05947 11.1194 9.11617
91 Ar 6.80456 2.251 0.0859911
92 Ar 6.70846 2.14226 4.52969
93 Ar 6.69579 2.36367 8.69528
94 Ar 6.77763 6.6161 0.42747
95 Ar 6.64791 6.83188 4.46365
96 Ar 6.73821 6.60332 8.63423
97 Ar 6.87653 11.0989 -0.291612
98 Ar 6.53858 11.1123 4.41703
99 Ar 6.51402 11.0258 9.05454
100 Ar 11.132 2.22222 -0.0694222
101 Ar 11.2462 2.31366 4.38971
102 Ar 11.1086 2.23827 8.91934
103 Ar 11.0194 6.68337 0.0271729
104 Ar 11.076 6.81087 4.47765
105 Ar 10.9399 6.52341 8.87605
106 Ar 11.0192 11.1174 -0.0768003
107 Ar 11.2234 11.0321 4.34026
108 Ar 11.1807 11.2073 8.82078
ITEM: TIMESTEP
30070
ITEM: NUMBER OF ATOMS
108
ITEM: BOX BOUNDS pp pp pp
0.0000000000000000e+00 1.3349999400000000e+01
0.0000000000000000e+00 1.3349999400000000e+01
0.0000000000000000e+00 1.3349999400000000e+01
ITEM: ATOMS id element xu yu zu
1 Ar 0.164462 0.0462761 -0.0456175
2 Ar -0.000413029 -0.0241838 4.35445
3 Ar 0.0637182 0.0294998 8.84647
4 Ar 0.129606 4.28235 0.0767402
5 Ar 0.199953 4.49668 4.43095
6 Ar -0.121124 4.3752 8.89174
7 Ar 0.213881 9.14096 0.100988
8 Ar 0.0350124 8.90561 4.49813
9 Ar -0.268493 8.84605 8.9603
10 Ar 4.56714 0.247611 -0.0888211
11 Ar 4.65407 -0.0967967 4.20168
12 Ar 4.39066 0.00693498 8.97099
13 Ar 4.56597 4.53404 0.143723
14 Ar 4.25584 4.68513 4.42015
15 Ar 4.54552 4.57237 8.87905
16 Ar 4.24209 8.70423 -0.0720261
17 Ar 4.2761 9.06171 4.36437
18 Ar 4.43433 8.71171 9.13108
19 Ar 8.93001 -0.0873652 -0.183596
20 Ar 9.0324 -0.115027 4.39842
21 Ar 8.91283 -0.119078 8.92787
22 Ar 9.0281 4.33206 0.182647
23 Ar 8.82602 4.16294 4.39371
24 Ar 8.80262 4.46792 8.60799
25 Ar 8.87012 8.76646 -0.102078
26 Ar 8.85778 9.08871 4.43945
27 Ar 8.77554 8.7512 8.97232
28 Ar 0.0482433 2.26797 2.23948
29 Ar 0.319589 2.28925 6.7813
30 Ar -0.025695 2.00379 11.1485
31 Ar -0.17158 6.83721 2.26698
32 Ar -0.0143095 6.7984 6.72214
33 Ar -0.258089 6.84025 11.141
34 Ar 0.0152776 11.1602 2.2509
35 Ar 0.0679866 11.2323 6.71736
36 Ar -0.0532164 11.1175 11.2807
37 Ar 4.46847 2.2563 2.27995
38 Ar 4.58595 2.21327 6.57139
39 Ar 4.58515 2.31142 11.1801
40 Ar 4.4805 6.80507 2.28257
41 Ar 4.28926 6.79745 6.63766
42 Ar 4.57212 6.48729 11.3261
43 Ar 4.52301 11.2314 2.11961
44 Ar 4.30282 11.0806 6.69643
45 Ar 4.39856 11.0298 11.3183
46 Ar 8.82382 2.19181 2.25622
47 Ar 8.86767 2.18301 6.70637
48 Ar 9.07049 2.24565 11.0525
49 Ar 8.89951 6.6343 2.38492
50 Ar 8.9512 6.54988 6.43295
51 Ar 8.99361 6.4294 11.1397
52 Ar 8.90062 11.1909 2.26396
53 Ar 8.88701 11.1352 6.6348
54 Ar 8.87427 11.0467 10.9016
55 Ar 2.38236 0.0768435 2.35144
56 Ar 2.30713 -0.00501259 6.64178
57 Ar 2.2953 -0.0717546 11.1016
58 Ar 2.35609 4.45988 2.21576
59 Ar 2.31342 4.46873 6.87415
60 Ar 2.01894 4.45406 11.1376
61 Ar 2.10536 8.88919 2.30955
62 Ar 2.01721 8.90231 6.74403
63 Ar 2.29371 8.85648 11.1877
64 Ar 6.68132 -0.0252152 2.06278
65 Ar 6.66127 -0.21879 7.05273
66 Ar 6.71226 0.107072 11.0324
67 Ar 6.50949 4.36855 2.40814
68 Ar 6.42765 4.45155 6.3812
69 Ar 6.7607 4.39345 11.2317
70 Ar 6.73461 9.06148 2.03899
71 Ar 6.59639 9.1494 6.67492
72 Ar 6.50202 8.71384 11.2838
73 Ar 11.107 0.0737098 2.03048
74 Ar 11.2306 0.210091 6.55988
75 Ar 11.2992 -0.0640202 11.0524
76 Ar 11.2153 4.34426 2.30884
77 Ar 11.217 4.39882 6.29758
78 Ar 11.2145 4.36518 11.1234
79 Ar 10.951 8.87241 2.05401
80 Ar 11.043 8.95546 6.68261
81 Ar 10.8885 8.99532 11.0477
82 Ar 2.28641 2.26892 0.144555
83 Ar 2.42986 2.34072 4.34669
84 Ar 2.23881 2.24412 8.92694
85 Ar 1.9471 6.72808 0.123495
86 Ar 2.18787 6.7363 4.48114
87 Ar 2.26829 6.53427 9.05195
88 Ar 2.33295 11.2759 0.0888943
89 Ar 2.14014 11.0649 4.41687
90 Ar 2.05009 11.1156 9.13027
91 Ar 6.81785 2.2513 0.0977209
92 Ar 6.71163 2.14304 4.49925
93 Ar 6.69485 2.35072 8.68261
94 Ar 6.78132 6.59994 0.445705
95 Ar 6.64161 6.81361 4.45466
96 Ar 6.74139 6.6147 8.60802
97 Ar 6.85606 11.0863 -0.265352
98 Ar 6.53014 11.1171 4.42657
99 Ar 6.52933 11.034 9.06442
100 Ar 11.1267 2.21955 -0.0570347
101 Ar 11.2383 2.29569 4.40066
102 Ar 11.1193 2.24589 8.91324
103 Ar 11.0114 6.68048 0.0359428
104 Ar 11.0714 6.80728 4.48844
105 Ar 10.97 6.51984 8.88111
106 Ar 10.9799 11.1099 -0.0844575
107 Ar 11.2295 11.015 4.31945
108 Ar 11.1904 11.2141 8.80656
ITEM: TIMESTEP
30080
ITEM: NUMBER OF ATOMS
108
ITEM: BOX BOUNDS pp pp pp
0.0000000000000000e+00 1.3349999400000000e+01
0.0000000000000000e+00 1.3349999400000000e+01
0.0000000000000000e+00 1.3349999400000000e+01
ITEM: ATOMS id element xu yu zu
1 Ar 0.188526 0.0570148 -0.053007
2 Ar 0.0153642 -0.0126449 4.34335
3 Ar 0.0648357 0.0434395 8.86134
4 Ar 0.134761 4.27859 0.0722536
5 Ar 0.198303 4.50197 4.40746
6 Ar -0.135847 4.37255 8.91276
7 Ar 0.213906 9.14124 0.107669
8 Ar 0.0198911 8.89562 4.51347
9 Ar -0.270456 8.82761 8.96937
10 Ar 4.54933 0.242827 -0.0918085
11 Ar 4.64891 -0.0930718 4.21689
12 Ar 4.38461 -0.00545894 8.96424
13 Ar 4.57622 4.53623 0.134169
14 Ar 4.26657 4.68802 4.41458
15 Ar 4.50998 4.57251 8.87847
16 Ar 4.22862 8.70696 -0.0601474
17 Ar 4.27967 9.04861 4.37767
18 Ar 4.43993 8.71707 9.14367
19 Ar 8.9311 -0.0725874 -0.186294
20 Ar 9.01365 -0.12363 4.3929
21 Ar 8.90586 -0.101122 8.9092
22 Ar 9.03242 4.32751 0.200704
23 Ar 8.82768 4.1708 4.40175
24 Ar 8.80208 4.48012 8.59215
25 Ar 8.87052 8.76248 -0.0944698
26 Ar 8.86696 9.09466 4.42938
27 Ar 8.76119 8.75309 8.96796
28 Ar 0.0564345 2.27984 2.23138
29 Ar 0.322799 2.28294 6.77165
30 Ar -0.0296306 2.00701 11.1454
31 Ar -0.169461 6.85124 2.28826
32 Ar -0.02142 6.79198 6.7245
33 Ar -0.263145 6.85261 11.1202
34 Ar 0.00943863 11.1673 2.22556
35 Ar 0.0522867 11.2407 6.72172
36 Ar -0.0485713 11.113 11.277
37 Ar 4.48798 2.24942 2.27953
38 Ar 4.57143 2.20165 6.57553
39 Ar 4.56425 2.31349 11.1831