ITEM: TIMESTEP
98000
ITEM: NUMBER OF ATOMS
108
ITEM: BOX BOUNDS pp pp pp
0.0000000000000000e+00 1.3349999400000000e+01
0.0000000000000000e+00 1.3349999400000000e+01
0.0000000000000000e+00 1.3349999400000000e+01
ITEM: ATOMS id element xu yu zu
1 Ar -0.150458 -0.0774572 0.183197
2 Ar 0.121922 0.046638 4.42513
3 Ar -0.155632 -0.0729114 8.96408
4 Ar 0.165594 4.54502 -0.150288
5 Ar -0.178834 4.30698 4.30726
6 Ar -0.106867 4.35999 8.82547
7 Ar -0.339628 8.84099 -0.0478821
8 Ar 0.136754 8.9457 4.32811
9 Ar 0.0651939 8.9237 9.03047
10 Ar 4.34139 0.155044 0.0244551
11 Ar 4.38713 -0.1317 4.27087
12 Ar 4.34458 0.102574 8.8753
13 Ar 4.52346 4.61048 0.00737196
14 Ar 4.56202 4.38559 4.43767
15 Ar 4.58375 4.45821 8.92836
16 Ar 4.6269 8.759 0.208696
17 Ar 4.46921 8.72337 4.7035
18 Ar 4.38396 8.87684 8.91331
19 Ar 8.60805 -0.0374019 0.0830774
20 Ar 8.94054 -0.172649 4.4188
21 Ar 8.86835 -0.0602077 8.99218
22 Ar 8.91898 4.35431 0.0693902
23 Ar 8.83752 4.42253 4.36857
24 Ar 9.13486 4.32693 9.06069
25 Ar 8.81884 8.82701 0.0949274
26 Ar 8.88044 8.97617 4.36362
27 Ar 9.0526 9.06886 8.86582
28 Ar 0.10804 2.26907 2.12332
29 Ar -0.0889406 2.34952 6.60048
30 Ar -0.0116383 2.12999 11.2032
31 Ar 0.010942 6.56361 2.23606
32 Ar 0.07367 6.58421 6.50262
33 Ar 0.206692 6.84442 10.9747
34 Ar 0.3117 11.0291 1.89526
35 Ar 0.0474296 11.1292 6.5333
36 Ar -0.113776 11.0988 11.0577
37 Ar 4.5195 2.44776 1.97126
38 Ar 4.44632 2.129 6.61338
39 Ar 4.49312 2.40085 11.2996
40 Ar 4.53306 6.78425 2.48751
41 Ar 4.53837 6.46645 6.86899
42 Ar 4.66353 6.71114 11.0929
43 Ar 4.38325 11.2413 2.15489
44 Ar 4.30576 10.983 6.60758
45 Ar 4.45947 11.1361 11.1857
46 Ar 8.82632 2.04942 2.2761
47 Ar 8.81574 2.13785 6.65272
48 Ar 8.96427 2.27977 11.2449
49 Ar 8.84232 6.75252 2.28133
50 Ar 8.98179 6.87477 6.82981
51 Ar 8.90901 6.70267 11.1021
52 Ar 8.93612 11.0616 2.31791
53 Ar 9.01476 11.3153 6.57292
54 Ar 8.83419 11.2102 11.0352
55 Ar 2.17411 0.10659 2.19574
56 Ar 2.21999 0.0579634 6.6451
57 Ar 2.06644 0.113188 11.0922
58 Ar 2.32347 4.55284 2.20637
59 Ar 2.40596 4.41378 6.6177
60 Ar 2.28957 4.38314 10.9895
61 Ar 2.25925 8.83259 2.17169
62 Ar 2.09023 8.85096 6.69297
63 Ar 2.37756 8.7711 11.2013
64 Ar 6.62371 -0.0734352 2.3207
65 Ar 6.47198 -0.011276 6.51714
66 Ar 6.56377 0.179332 11.0673
67 Ar 6.81863 4.46756 2.24453
68 Ar 6.88649 4.55246 6.90266
69 Ar 6.81909 4.31113 11.0786
70 Ar 6.75417 8.84961 2.48567
71 Ar 6.81013 8.97042 6.81436
72 Ar 6.84775 9.07776 11.002
73 Ar 11.109 0.0726463 2.29044
74 Ar 11.27 0.294373 6.50966
75 Ar 11.0814 -0.0105793 11.294
76 Ar 11.1276 4.22846 2.24533
77 Ar 10.8875 4.23374 6.64082
78 Ar 11.2902 4.50026 11.2943
79 Ar 11.212 8.83494 2.33672
80 Ar 11.2607 8.85099 6.75491
81 Ar 11.0007 8.84529 11.1443
82 Ar 2.22187 2.29692 0.048946
83 Ar 2.2125 2.21406 4.49341
84 Ar 2.09175 2.31902 8.87838
85 Ar 2.10922 6.67396 -0.108384
86 Ar 2.08644 6.69777 4.30736
87 Ar 2.2912 6.62738 8.95114
88 Ar 2.21696 11.0963 -0.170767
89 Ar 2.23799 11.2356 4.36096
90 Ar 2.16809 11.0777 8.95491
91 Ar 6.69264 2.24397 -0.063176
92 Ar 6.66014 2.24564 4.38832
93 Ar 6.55786 2.18567 8.76447
94 Ar 6.77441 6.71836 -0.0577622
95 Ar 6.67607 6.77371 4.60498
96 Ar 6.76016 6.7277 9.01255
97 Ar 6.52306 11.3131 0.0117941
98 Ar 6.40324 11.0394 4.36747
99 Ar 6.40719 11.2331 8.88345
100 Ar 11.1086 2.13069 0.255854
101 Ar 10.9836 2.09872 4.30631
102 Ar 11.1913 2.12635 8.92283
103 Ar 11.0436 6.66399 0.0114052
104 Ar 11.0912 6.72698 4.50682
105 Ar 11.274 6.67625 8.94008
106 Ar 10.8888 11.0386 0.020101
107 Ar 11.1893 10.9859 4.36997
108 Ar 10.9958 11.181 8.75922
ITEM: TIMESTEP
98010
ITEM: NUMBER OF ATOMS
108
ITEM: BOX BOUNDS pp pp pp
0.0000000000000000e+00 1.3349999400000000e+01
0.0000000000000000e+00 1.3349999400000000e+01
0.0000000000000000e+00 1.3349999400000000e+01
ITEM: ATOMS id element xu yu zu
1 Ar -0.165908 -0.078136 0.169768
2 Ar 0.127257 0.0602771 4.44839
3 Ar -0.170773 -0.0563177 8.96711
4 Ar 0.16894 4.54404 -0.147985
5 Ar -0.160775 4.29773 4.28617
6 Ar -0.118095 4.37811 8.82865
7 Ar -0.358848 8.85061 -0.0350427
8 Ar 0.120467 8.94292 4.32943
9 Ar 0.0839626 8.91048 9.01987
10 Ar 4.34253 0.167768 0.033401
11 Ar 4.37259 -0.122263 4.27363
12 Ar 4.34362 0.100989 8.88051
13 Ar 4.52362 4.61701 0.0354693
14 Ar 4.54895 4.38188 4.44977
15 Ar 4.57576 4.47917 8.91734
16 Ar 4.62606 8.77602 0.205146
17 Ar 4.47423 8.71786 4.69874
18 Ar 4.404 8.88416 8.89692
19 Ar 8.6229 -0.012876 0.0867859
20 Ar 8.9316 -0.161956 4.43138
21 Ar 8.8818 -0.0471892 8.99435
22 Ar 8.92077 4.36668 0.0710709
23 Ar 8.81226 4.41934 4.38142
24 Ar 9.13809 4.31995 9.07958
25 Ar 8.81223 8.83245 0.0893556
26 Ar 8.86687 8.9865 4.37563
27 Ar 9.05616 9.06279 8.86255
28 Ar 0.107474 2.2977 2.11523
29 Ar -0.109894 2.31729 6.58823
30 Ar -0.0133536 2.13481 11.1967
31 Ar -0.00196917 6.54776 2.24109
32 Ar 0.0748732 6.57718 6.4946
33 Ar 0.216134 6.83798 10.9634
34 Ar 0.303857 11.0543 1.89724
35 Ar 0.049896 11.1404 6.55303
36 Ar -0.0905533 11.0931 11.037
37 Ar 4.53215 2.4476 1.96436
38 Ar 4.44234 2.13387 6.60716
39 Ar 4.4715 2.40157 11.2977
40 Ar 4.51814 6.77875 2.50348
41 Ar 4.52792 6.47941 6.85247
42 Ar 4.66047 6.71291 11.1057
43 Ar 4.38324 11.2327 2.1479
44 Ar 4.30118 10.9604 6.61632
45 Ar 4.43211 11.1323 11.1904
46 Ar 8.82922 2.04499 2.28779
47 Ar 8.80733 2.13471 6.64561
48 Ar 8.95912 2.2802 11.2607
49 Ar 8.83381 6.74071 2.29198
50 Ar 8.98663 6.86074 6.84022
51 Ar 8.90132 6.70584 11.0794
52 Ar 8.93725 11.0713 2.31155
53 Ar 9.0064 11.3297 6.59824
54 Ar 8.84748 11.2083 11.0412
55 Ar 2.19957 0.115682 2.22002
56 Ar 2.21818 0.0583746 6.65359
57 Ar 2.05696 0.102319 11.1054
58 Ar 2.32597 4.5313 2.20036
59 Ar 2.40566 4.40616 6.61979
60 Ar 2.31924 4.38025 10.9864
61 Ar 2.27282 8.83693 2.18168
62 Ar 2.09316 8.8305 6.68869
63 Ar 2.39815 8.76844 11.1858
64 Ar 6.63447 -0.0685368 2.32331
65 Ar 6.48552 -0.0404563 6.52194
66 Ar 6.57045 0.184022 11.0562
67 Ar 6.822 4.48693 2.25683
68 Ar 6.87695 4.55532 6.88906
69 Ar 6.81892 4.31018 11.0695
70 Ar 6.74818 8.85963 2.48667
71 Ar 6.80621 8.96393 6.82189
72 Ar 6.8629 9.08358 11.004
73 Ar 11.1062 0.058568 2.28806
74 Ar 11.2483 0.269663 6.50577
75 Ar 11.0798 0.00869893 11.29
76 Ar 11.1239 4.2126 2.23826
77 Ar 10.901 4.23409 6.63592
78 Ar 11.2902 4.47781 11.2888
79 Ar 11.213 8.85738 2.3347
80 Ar 11.2734 8.85344 6.75675
81 Ar 10.9963 8.85046 11.1282
82 Ar 2.21151 2.30216 0.046646
83 Ar 2.21757 2.21583 4.50036
84 Ar 2.09584 2.31508 8.85826
85 Ar 2.11795 6.67735 -0.119814
86 Ar 2.09369 6.68551 4.31449
87 Ar 2.28676 6.63228 8.94854
88 Ar 2.21248 11.1138 -0.158459
89 Ar 2.23976 11.2303 4.36914
90 Ar 2.17155 11.0739 8.92867
91 Ar 6.68971 2.23654 -0.0555153
92 Ar 6.65284 2.21929 4.38593
93 Ar 6.55103 2.17455 8.75599
94 Ar 6.7709 6.72442 -0.0548886
95 Ar 6.69176 6.7511 4.59294
96 Ar 6.77217 6.7069 9.01409
97 Ar 6.52524 11.2943 0.024606
98 Ar 6.40799 11.0377 4.38187
99 Ar 6.43037 11.2385 8.87567
100 Ar 11.1068 2.13443 0.26564
101 Ar 10.9766 2.10824 4.28266
102 Ar 11.1854 2.11362 8.90732
103 Ar 11.0559 6.6642 6.63532e-05
104 Ar 11.0991 6.72971 4.49867
105 Ar 11.269 6.69056 8.94724
106 Ar 10.8735 11.0516 0.0175425
107 Ar 11.2088 10.9935 4.37041
108 Ar 10.9941 11.172 8.75639
ITEM: TIMESTEP
98020
ITEM: NUMBER OF ATOMS
108
ITEM: BOX BOUNDS pp pp pp
0.0000000000000000e+00 1.3349999400000000e+01
0.0000000000000000e+00 1.3349999400000000e+01
0.0000000000000000e+00 1.3349999400000000e+01
ITEM: ATOMS id element xu yu zu
1 Ar -0.17934 -0.0777729 0.152794
2 Ar 0.130038 0.0730662 4.46964
3 Ar -0.183542 -0.0398392 8.968
4 Ar 0.170067 4.54182 -0.144027
5 Ar -0.140685 4.29015 4.26835
6 Ar -0.128201 4.39783 8.83225
7 Ar -0.37277 8.86049 -0.0228954
8 Ar 0.103281 8.94031 4.33152
9 Ar 0.101388 8.89843 9.00617
10 Ar 4.34428 0.178224 0.0410165
11 Ar 4.35829 -0.108295 4.27905
12 Ar 4.34132 0.0984737 8.88696
13 Ar 4.5237 4.62556 0.0624661
14 Ar 4.53587 4.37921 4.46213
15 Ar 4.56675 4.49779 8.90756
16 Ar 4.62421 8.79447 0.199332
17 Ar 4.47698 8.71387 4.69329
18 Ar 4.42494 8.89135 8.88019
19 Ar 8.64177 0.0110899 0.0890008
20 Ar 8.9209 -0.149669 4.44382
21 Ar 8.89445 -0.0314301 8.99446
22 Ar 8.92293 4.38075 0.072679
23 Ar 8.78869 4.41711 4.39624
24 Ar 9.13981 4.31446 9.09691
25 Ar 8.80589 8.84013 0.0833147
26 Ar 8.85547 8.99612 4.39271
27 Ar 9.05719 9.05535 8.85932
28 Ar 0.10663 2.32555 2.10845
29 Ar -0.1276 2.28568 6.57636
30 Ar -0.0164968 2.14152 11.1908
31 Ar -0.0166608 6.53294 2.24435
32 Ar 0.0746773 6.56883 6.48904
33 Ar 0.22124 6.82765 10.9551
34 Ar 0.291191 11.0789 1.90509
35 Ar 0.0515104 11.1521 6.57461
36 Ar -0.0677857 11.0873 11.0189
37 Ar 4.54442 2.44478 1.96241
38 Ar 4.4385 2.14055 6.60072
39 Ar 4.44886 2.40023 11.2928
40 Ar 4.50345 6.7705 2.51583
41 Ar 4.51728 6.49606 6.83325
42 Ar 4.65609 6.71426 11.1194
43 Ar 4.38197 11.2208 2.13968
44 Ar 4.29682 10.9404 6.62651
45 Ar 4.40466 11.1289 11.1943
46 Ar 8.83043 2.04253 2.29823
47 Ar 8.79824 2.13044 6.63885
48 Ar 8.95549 2.27792 11.2753
49 Ar 8.82783 6.72716 2.30235
50 Ar 8.99174 6.84386 6.84896
51 Ar 8.89445 6.70775 11.0573
52 Ar 8.93687 11.0819 2.30325
53 Ar 8.99605 11.3414 6.62416
54 Ar 8.86087 11.2067 11.0495
55 Ar 2.22543 0.124543 2.24292
56 Ar 2.21581 0.0576595 6.66362
57 Ar 2.05013 0.0898691 11.119
58 Ar 2.32795 4.50941 2.19496
59 Ar 2.40218 4.39934 6.62209
60 Ar 2.34744 4.37918 10.9849
61 Ar 2.28687 8.84156 2.19062
62 Ar 2.09726 8.80969 6.68436
63 Ar 2.41866 8.76923 11.1707
64 Ar 6.64482 -0.0624271 2.32538
65 Ar 6.50082 -0.0709254 6.52752
66 Ar 6.57738 0.186844 11.0456
67 Ar 6.82282 4.50682 2.26776
68 Ar 6.86769 4.55692 6.87304
69 Ar 6.81761 4.31163 11.0607
70 Ar 6.73918 8.87077 2.48262
71 Ar 6.80112 8.95814 6.82853
72 Ar 6.87515 9.08777 11.0077
73 Ar 11.1042 0.0393848 2.2855
74 Ar 11.2246 0.23953 6.50374
75 Ar 11.0775 0.0276414 11.2855
76 Ar 11.1185 4.20237 2.23017
77 Ar 10.9161 4.23782 6.63022
78 Ar 11.2888 4.45482 11.2819
79 Ar 11.2127 8.87952 2.33089
80 Ar 11.2866 8.85701 6.75675
81 Ar 10.9927 8.85705 11.1114
82 Ar 2.20084 2.30731 0.0423789
83 Ar 2.22377 2.21912 4.50524
84 Ar 2.10109 2.30933 8.83767
85 Ar 2.12986 6.68173 -0.128664
86 Ar 2.10352 6.67152 4.32441
87 Ar 2.28245 6.63651 8.94341
88 Ar 2.20963 11.1311 -0.147329
89 Ar 2.24086 11.2219 4.37741
90 Ar 2.17596 11.0718 8.90248
91 Ar 6.6871 2.22983 -0.0459359
92 Ar 6.64497 2.19234 4.3846
93 Ar 6.5465 2.16352 8.7491
94 Ar 6.76713 6.72862 -0.0512117
95 Ar 6.7092 6.72596 4.58256
96 Ar 6.7847 6.68668 9.01449
97 Ar 6.5287 11.2724 0.0368103
98 Ar 6.41579 11.0367 4.39864
99 Ar 6.45586 11.2442 8.86715
100 Ar 11.1045 2.13881 0.269999
101 Ar 10.9713 2.12007 4.26155
102 Ar 11.1778 2.10143 8.89331
103 Ar 11.068 6.66276 -0.00996534
104 Ar 11.1066 6.73071 4.49036
105 Ar 11.2629 6.70386 8.95362
106 Ar 10.8601 11.066 0.0152112
107 Ar 11.2294 11.0038 4.37193
108 Ar 10.9967 11.1642 8.75498
ITEM: TIMESTEP
98030
ITEM: NUMBER OF ATOMS
108
ITEM: BOX BOUNDS pp pp pp
0.0000000000000000e+00 1.3349999400000000e+01
0.0000000000000000e+00 1.3349999400000000e+01
0.0000000000000000e+00 1.3349999400000000e+01
ITEM: ATOMS id element xu yu zu
1 Ar -0.190477 -0.0761938 0.132635
2 Ar 0.130305 0.0848004 4.48835
3 Ar -0.193655 -0.0238118 8.96685
4 Ar 0.169047 4.53866 -0.138768
5 Ar -0.118877 4.28431 4.25433
6 Ar -0.136952 4.41846 8.83602
7 Ar -0.381148 8.87066 -0.0117957
8 Ar 0.085759 8.93772 4.33434
9 Ar 0.117311 8.8876 8.98959
10 Ar 4.34674 0.186137 0.047126
11 Ar 4.34489 -0.0904769 4.28714
12 Ar 4.33773 0.0949427 8.89454
13 Ar 4.52384 4.63599 0.0878919
14 Ar 4.52311 4.37747 4.47444
15 Ar 4.55706 4.51389 8.89895
16 Ar 4.62133 8.81389 0.191362
17 Ar 4.47772 8.71149 4.68713
18 Ar 4.44664 8.89807 8.86361
19 Ar 8.66409 0.033917 0.0896495
20 Ar 8.90872 -0.136251 4.45591
21 Ar 8.90624 -0.0132026 8.99278
22 Ar 8.92527 4.39634 0.0741365
23 Ar 8.76738 4.41559 4.41296
24 Ar 9.1401 4.31033 9.11207
25 Ar 8.80008 8.84966 0.0770194
26 Ar 8.84645 9.00507 4.41447
27 Ar 9.0556 9.04671 8.856
28 Ar 0.105649 2.35159 2.10285
29 Ar -0.142023 2.2553 6.56519
30 Ar -0.0207493 2.15008 11.1852
31 Ar -0.0326635 6.51948 2.2458
32 Ar 0.0729814 6.55912 6.48592
33 Ar 0.222042 6.81373 10.9503
34 Ar 0.274097 11.1027 1.9188
35 Ar 0.0523572 11.164 6.59771
36 Ar -0.045767 11.0814 11.0036
37 Ar 4.55617 2.43942 1.96561
38 Ar 4.43519 2.14855 6.59432
39 Ar 4.42597 2.39673 11.2854
40 Ar 4.48931 6.75969 2.52428
41 Ar 4.5066 6.5161 6.81159
42 Ar 4.6507 6.7152 11.1335
43 Ar 4.37966 11.2061 2.13085
44 Ar 4.29279 10.9235 6.63782
45 Ar 4.37786 11.1262 11.1971
46 Ar 8.82975 2.04225 2.30722
47 Ar 8.78871 2.12538 6.63253
48 Ar 8.95331 2.27312 11.2886
49 Ar 8.82472 6.71256 2.31219
50 Ar 8.9972 6.82438 6.85586
51 Ar 8.8887 6.70843 11.0365
52 Ar 8.93494 11.0933 2.29354
53 Ar 8.98387 11.3503 6.6502
54 Ar 8.87419 11.2059 11.0597
55 Ar 2.25085 0.133292 2.26397
56 Ar 2.21307 0.0557941 6.67504
57 Ar 2.04588 0.0761699 11.1327
58 Ar 2.32937 4.48765 2.19031
59 Ar 2.39538 4.39348 6.62468
60 Ar 2.37352 4.38013 10.9849
61 Ar 2.3008 8.84648 2.19855
62 Ar 2.10241 8.78879 6.67977
63 Ar 2.43862 8.77342 11.1561
64 Ar 6.65441 -0.0555953 2.32681
65 Ar 6.51725 -0.10201 6.53385
66 Ar 6.58442 0.187663 11.0358
67 Ar 6.82088 4.52663 2.27715
68 Ar 6.85861 4.55706 6.85502
69 Ar 6.81489 4.31515 11.0526
70 Ar 6.72746 8.88268 2.47379
71 Ar 6.79509 8.95279 6.83412
72 Ar 6.88418 9.09033 11.0128
73 Ar 11.1034 0.0155866 2.28293
74 Ar 11.1991 0.204552 6.50326
75 Ar 11.0747 0.0459247 11.2805
76 Ar 11.1114 4.19835 2.22135
77 Ar 10.9327 4.24473 6.62378
78 Ar 11.2862 4.43159 11.2739
79 Ar 11.2108 8.90105 2.32548
80 Ar 11.2999 8.86155 6.75483
81 Ar 10.9902 8.86503 11.0945
82 Ar 2.19011 2.31209 0.0362298
83 Ar 2.23088 2.22388 4.50805
84 Ar 2.10717 2.30204 8.81704
85 Ar 2.14458 6.6871 -0.134732
86 Ar 2.11548 6.65599 4.33673
87 Ar 2.27854 6.63998 8.93576
88 Ar 2.20822 11.1476 -0.137245
89 Ar 2.24119 11.2105 4.38576
90 Ar 2.18128 11.0714 8.87665
91 Ar 6.68481 2.22419 -0.0348309
92 Ar 6.63642 2.16526 4.38437
93 Ar 6.54418 2.15294 8.74371
94 Ar 6.76318 6.73106 -0.0467769
95 Ar 6.72787 6.69905 4.57394
96 Ar 6.79719 6.66731 9.01364
97 Ar 6.53366 11.2482 0.0481019
98 Ar 6.42627 11.0366 4.41742
99 Ar 6.48329 11.2501 8.85838
100 Ar 11.102 2.14358 0.268923
101 Ar 10.9679 2.13364 4.24372
102 Ar 11.1686 2.09028 8.88078
103 Ar 11.0795 6.65972 -0.0188109
104 Ar 11.1134 6.72997 4.48194
105 Ar 11.2559 6.71597 8.95915
106 Ar 10.8487 11.0818 0.0129214
107 Ar 11.2508 11.0166 4.37465
108 Ar 11.0035 11.1578 8.75519
ITEM: TIMESTEP
98040
ITEM: NUMBER OF ATOMS
108
ITEM: BOX BOUNDS pp pp pp
0.0000000000000000e+00 1.3349999400000000e+01
0.0000000000000000e+00 1.3349999400000000e+01
0.0000000000000000e+00 1.3349999400000000e+01
ITEM: ATOMS id element xu yu zu
1 Ar -0.199091 -0.0733202 0.109703
2 Ar 0.128177 0.0952496 4.50408
3 Ar -0.200861 -0.00852867 8.9638
4 Ar 0.165989 4.5349 -0.132552
5 Ar -0.0957155 4.28028 4.2445
6 Ar -0.144148 4.43937 8.83977
7 Ar -0.38385 8.88118 -0.00205633
8 Ar 0.0684494 8.93501 4.33783
9 Ar 0.131604 8.878 8.9705
10 Ar 4.34999 0.191301 0.0515941
11 Ar 4.33296 -0.0696168 4.29792
12 Ar 4.33301 0.0903406 8.9031
13 Ar 4.52418 4.64798 0.111346
14 Ar 4.51099 4.37659 4.48643
15 Ar 4.547 4.52739 8.89137
16 Ar 4.61739 8.83378 0.181314
17 Ar 4.47679 8.7108 4.68017
18 Ar 4.46893 8.90402 8.8477
19 Ar 8.68927 0.0550946 0.0887318
20 Ar 8.89537 -0.122172 4.46743
21 Ar 8.91708 0.00712119 8.9896
22 Ar 8.92756 4.41326 0.0753232
23 Ar 8.74882 4.41445 4.43144
24 Ar 9.13903 4.30738 9.12457
25 Ar 8.79505 8.86062 0.0706673
26 Ar 8.83991 9.01336 4.44032
27 Ar 9.05142 9.03705 8.85244
28 Ar 0.104569 2.37484 2.09829
29 Ar -0.153276 2.22666 6.55503
30 Ar -0.0257335 2.16038 11.1799
31 Ar -0.0494728 6.50769 2.24545
32 Ar 0.0697085 6.54811 6.48518
33 Ar 0.218725 6.79667 10.949
34 Ar 0.253074 11.1256 1.93818
35 Ar 0.0525271 11.1758 6.62197
36 Ar -0.0247399 11.0753 10.991
37 Ar 4.56721 2.43169 1.974
38 Ar 4.43275 2.15742 6.58826
39 Ar 4.40359 2.39094 11.2755
40 Ar 4.47601 6.74657 2.52864
41 Ar 4.49607 6.53904 6.78788
42 Ar 4.64461 6.71575 11.1478
43 Ar 4.37655 11.1892 2.12207
44 Ar 4.28924 10.9098 6.64985
45 Ar 4.35246 11.1244 11.1988
46 Ar 8.82712 2.04435 2.31457
47 Ar 8.77902 2.11987 6.62672
48 Ar 8.95239 2.26609 11.3004
49 Ar 8.82475 6.69768 2.32126
50 Ar 9.00306 6.8026 6.86079
51 Ar 8.88433 6.70798 11.0175
52 Ar 8.93141 11.1052 2.28297
53 Ar 8.97006 11.356 6.67591
54 Ar 8.88726 11.206 11.0715
55 Ar 2.275 0.141969 2.2827
56 Ar 2.21015 0.0527914 6.68763
57 Ar 2.04405 0.0616158 11.1462
58 Ar 2.33025 4.46645 2.18655
59 Ar 2.38519 4.38871 6.62765
60 Ar 2.39684 4.38327 10.9864
61 Ar 2.31403 8.85165 2.20552
62 Ar 2.10846 8.76807 6.67478
63 Ar 2.45752 8.78081 11.1421
64 Ar 6.66287 -0.0485663 2.32748
65 Ar 6.5341 -0.132974 6.54094
66 Ar 6.59144 0.18639 11.0272
67 Ar 6.81605 4.54579 2.28486
68 Ar 6.84955 4.5556 6.83547
69 Ar 6.81055 4.32036 11.0454
70 Ar 6.71344 8.89501 2.46067
71 Ar 6.78837 8.94761 6.83847
72 Ar 6.88974 9.09129 11.0191
73 Ar 11.1036 -0.0121081 2.28048
74 Ar 11.172 0.165451 6.50403
75 Ar 11.0714 0.0632342 11.275
76 Ar 11.1024 4.20089 2.21208
77 Ar 10.9502 4.25457 6.61671
78 Ar 11.2825 4.40848 11.2651
79 Ar 11.2069 8.9217 2.31866
80 Ar 11.3131 8.8669 6.751
81 Ar 10.989 8.87439 11.0779
82 Ar 2.1796 2.31618 0.0283185
83 Ar 2.23869 2.23002 4.50886
84 Ar 2.11376 2.29349 8.79689
85 Ar 2.16168 6.69342 -0.137904
86 Ar 2.12904 6.63913 4.35104
87 Ar 2.27528 6.64263 8.92571
88 Ar 2.2079 11.1633 -0.127911
89 Ar 2.24071 11.1963 4.3942
90 Ar 2.18745 11.0725 8.85152
91 Ar 6.68283 2.21989 -0.0226369
92 Ar 6.62715 2.13856 4.38529
93 Ar 6.54391 2.14314 8.73974
94 Ar 6.75917 6.73187 -0.0416347
95 Ar 6.74721 6.67129 4.56711
96 Ar 6.80908 6.64903 9.0114
97 Ar 6.54032 11.2226 0.0582179
98 Ar 6.43898 11.0373 4.43776
99 Ar 6.5123 11.2561 8.84987
100 Ar 11.0991 2.14851 0.262622
101 Ar 10.9666 2.14836 4.22972
102 Ar 11.1578 2.08067 8.86961
103 Ar 11.0902 6.65521 -0.026634
104 Ar 11.1193 6.72757 4.47346
105 Ar 11.2481 6.72674 8.96376
106 Ar 10.8397 11.0985 0.0105132
107 Ar 11.2722 11.032 4.37865
108 Ar 11.0145 11.1528 8.7572
ITEM: TIMESTEP
98050
ITEM: NUMBER OF ATOMS
108
ITEM: BOX BOUNDS pp pp pp
0.0000000000000000e+00 1.3349999400000000e+01
0.0000000000000000e+00 1.3349999400000000e+01
0.0000000000000000e+00 1.3349999400000000e+01
ITEM: ATOMS id element xu yu zu
1 Ar -0.205008 -0.0691718 0.0844686
2 Ar 0.123848 0.104173 4.51641
3 Ar -0.204957 0.00577801 8.95906
4 Ar 0.161037 4.53087 -0.125701
5 Ar -0.0716012 4.27812 4.23917
6 Ar -0.14962 4.45993 8.84333
7 Ar -0.380847 8.89206 0.00607229
8 Ar 0.0518576 8.93197 4.34193
9 Ar 0.144172 8.86953 8.94934
10 Ar 4.3541 0.193588 0.0543323
11 Ar 4.32303 -0.0466077 4.31139
12 Ar 4.32734 0.084642 8.91248
13 Ar 4.52481 4.66108 0.1325
14 Ar 4.49979 4.3765 4.49787
15 Ar 4.5369 4.53832 8.88456
16 Ar 4.61235 8.85362 0.169236
17 Ar 4.47453 8.7119 4.67225
18 Ar 4.49161 8.9089 8.83304
19 Ar 8.71665 0.0741948 0.0863256
20 Ar 8.88118 -0.107886 4.47816
21 Ar 8.92691 0.0290839 8.98524
22 Ar 8.92956 4.43126 0.0760822
23 Ar 8.73347 4.41332 4.4514
24 Ar 9.13667 4.30544 9.13396
25 Ar 8.79105 8.87258 0.0644316
26 Ar 8.83584 9.02101 4.46957
27 Ar 9.04474 9.02665 8.84852
28 Ar 0.103322 2.39448 2.09461
29 Ar -0.161597 2.20017 6.54619
30 Ar -0.0310353 2.17224 11.1746
31 Ar -0.0665713 6.49786 2.24337
32 Ar 0.0648094 6.53591 6.48672
33 Ar 0.211606 6.77701 10.9515
34 Ar 0.228708 11.1475 1.9628
35 Ar 0.0521131 11.1874 6.64701
36 Ar -0.00489701 11.0691 10.9811
37 Ar 4.57734 2.42184 1.98748
38 Ar 4.43145 2.16674 6.58289
39 Ar 4.38246 2.38272 11.2634
40 Ar 4.46383 6.73145 2.52887
41 Ar 4.48586 6.56428 6.76256
42 Ar 4.63811 6.71594 11.1617
43 Ar 4.37288 11.1708 2.11402
44 Ar 4.28635 10.8997 6.66217
45 Ar 4.32916 11.1238 11.1991
46 Ar 8.82262 2.04896 2.32017
47 Ar 8.76946 2.11426 6.62152
48 Ar 8.95245 2.25724 11.3106
49 Ar 8.8281 6.68322 2.3294
50 Ar 9.00936 6.77884 6.86364
51 Ar 8.8816 6.70653 11.0012
52 Ar 8.92625 11.1174 2.2721
53 Ar 8.95493 11.3583 6.70094
54 Ar 8.89983 11.2072 11.0843
55 Ar 2.29717 0.150539 2.29871
56 Ar 2.20724 0.0487004 6.70107
57 Ar 2.04445 0.046644 11.159
58 Ar 2.33059 4.44625 2.18375
59 Ar 2.37163 4.38518 6.63109
60 Ar 2.41682 4.38877 10.9892
61 Ar 2.32603 8.85699 2.21161
62 Ar 2.11524 8.74785 6.66921
63 Ar 2.47479 8.79106 11.1286
64 Ar 6.66992 -0.0418717 2.32721
65 Ar 6.55069 -0.163026 6.54879
66 Ar 6.59832 0.182978 11.0201
67 Ar 6.80828 4.56372 2.29083
68 Ar 6.84028 4.5524 6.81491
69 Ar 6.80444 4.32684 11.0393
70 Ar 6.69762 8.9074 2.44388
71 Ar 6.78119 8.94234 6.84143
72 Ar 6.8917 9.09072 11.0262
73 Ar 11.105 -0.0427852 2.27829
74 Ar 11.1438 0.123071 6.50585
75 Ar 11.0679 0.0792675 11.2688
76 Ar 11.0918 4.2101 2.20264
77 Ar 10.9685 4.267 6.60911
78 Ar 11.2775 4.38583 11.2557
79 Ar 11.2008 8.94126 2.3107
80 Ar 11.3259 8.87289 6.74526
81 Ar 10.9895 8.88502 11.0622
82 Ar 2.16959 2.31933 0.0187939
83 Ar 2.24693 2.2374 4.50776
84 Ar 2.12053 2.28399 8.77771
85 Ar 2.18064 6.70062 -0.138144
86 Ar 2.1437 6.62122 4.36689
87 Ar 2.27281 6.64442 8.91351
88 Ar 2.20824 11.1778 -0.118908
89 Ar 2.23944 11.1797 4.40271
90 Ar 2.19437 11.0752 8.82748
91 Ar 6.68116 2.21717 -0.00980587
92 Ar 6.61718 2.11275 4.38744
93 Ar 6.54549 2.13443 8.73709
94 Ar 6.75522 6.73127 -0.0358411
95 Ar 6.7666 6.64366 4.56206
96 Ar 6.81981 6.63204 9.00763
97 Ar 6.54882 11.1963 0.0669353
98 Ar 6.45348 11.0389 4.45912
99 Ar 6.5425 11.262 8.84213
100 Ar 11.096 2.15345 0.251518
101 Ar 10.9676 2.16364 4.21989
102 Ar 11.1456 2.07308 8.85964
103 Ar 11.0999 6.64945 -0.033626
104 Ar 11.1241 6.72357 4.46499
105 Ar 11.2397 6.73608 8.96736
106 Ar 10.8334 11.1161 0.00785599
107 Ar 11.2931 11.0497 4.38399
108 Ar 11.0293 11.149 8.76112
ITEM: TIMESTEP
98060
ITEM: NUMBER OF ATOMS
108
ITEM: BOX BOUNDS pp pp pp
0.0000000000000000e+00 1.3349999400000000e+01
0.0000000000000000e+00 1.3349999400000000e+01
0.0000000000000000e+00 1.3349999400000000e+01
ITEM: ATOMS id element xu yu zu
1 Ar -0.208108 -0.0638568 0.0574606
2 Ar 0.117576 0.11134 4.52501
3 Ar -0.205808 0.0189503 8.9529
4 Ar 0.15436 4.5269 -0.118504
5 Ar -0.0469605 4.27788 4.23849
6 Ar -0.153243 4.47955 8.84658
7 Ar -0.372223 8.90327 0.0124198
8 Ar 0.0364209 8.92841 4.34656
9 Ar 0.154947 8.86208 8.92666
10 Ar 4.35913 0.192947 0.0553038
11 Ar 4.31549 -0.0223891 4.32751
12 Ar 4.32098 0.0778534 8.92252
13 Ar 4.52577 4.67474 0.151093
14 Ar 4.48976 4.37718 4.50856
15 Ar 4.52705 4.54674 8.87825
16 Ar 4.60618 8.87291 0.155154
17 Ar 4.47131 8.71489 4.66317
18 Ar 4.51444 8.91245 8.82018
19 Ar 8.74557 0.0908788 0.0825877
20 Ar 8.86651 -0.0938189 4.48784
21 Ar 8.93563 0.0521588 8.97997
22 Ar 8.93104 4.45006 0.0762286
23 Ar 8.72172 4.41179 4.47249
24 Ar 9.13303 4.30429 9.13989
25 Ar 8.78832 8.88507 0.058456
26 Ar 8.8342 9.028 4.50145
27 Ar 9.03574 9.01577 8.84418
28 Ar 0.101741 2.40982 2.09168
29 Ar -0.167316 2.17618 6.53899
30 Ar -0.0362267 2.1854 11.1691
31 Ar -0.0834455 6.49023 2.23967
32 Ar 0.0582656 6.5227 6.49039
33 Ar 0.201108 6.75539 10.9575
34 Ar 0.201654 11.1685 1.9921
35 Ar 0.0512083 11.1984 6.67238
36 Ar 0.0136175 11.0626 10.9738
37 Ar 4.58636 2.41015 2.00579
38 Ar 4.43149 2.17615 6.57856
39 Ar 4.36318 2.372 11.2495
40 Ar 4.45299 6.71474 2.52503
41 Ar 4.47618 6.59112 6.73615
42 Ar 4.63149 6.71579 11.175
43 Ar 4.3689 11.1517 2.10732
44 Ar 4.28427 10.8934 6.6743
45 Ar 4.30862 11.1245 11.198
46 Ar 8.8164 2.05615 2.32397
47 Ar 8.76033 2.10889 6.61696
48 Ar 8.95315 2.24708 11.3192
49 Ar 8.83485 6.66986 2.33643
50 Ar 9.0161 6.75347 6.86437
51 Ar 8.88069 6.70424 10.9878
52 Ar 8.91942 11.1295 2.26147
53 Ar 8.93885 11.357 6.72496
54 Ar 8.91166 11.2097 11.0978
55 Ar 2.31674 0.158892 2.31164
56 Ar 2.20449 0.0436049 6.71494
57 Ar 2.04685 0.0317111 11.171
58 Ar 2.33045 4.42741 2.18198
59 Ar 2.35483 4.38295 6.63506
60 Ar 2.43301 4.39675 10.9933
61 Ar 2.33631 8.86237 2.21689
62 Ar 2.12258 8.72846 6.66294
63 Ar 2.48987 8.8037 11.1157
64 Ar 6.67528 -0.0360207 2.32582
65 Ar 6.56636 -0.191342 6.55742
66 Ar 6.60497 0.177418 11.0149
67 Ar 6.79766 4.57989 2.29503
68 Ar 6.83053 4.54736 6.79391
69 Ar 6.79649 4.33417 11.0348
70 Ar 6.68058 8.9195 2.42419
71 Ar 6.77379 8.93673 6.84284
72 Ar 6.88998 9.08869 11.0339
73 Ar 11.1076 -0.0753794 2.27642
74 Ar 11.115 0.0783539 6.50854
75 Ar 11.0642 0.0937395 11.2618
76 Ar 11.0796 4.22582 2.1933
77 Ar 10.9874 4.28164 6.60112
78 Ar 11.2714 4.36398 11.2459
79 Ar 11.1922 8.95956 2.30182
80 Ar 11.3378 8.87935 6.73772
81 Ar 10.9917 8.89683 11.0476
82 Ar 2.16037 2.32131 0.00783046
83 Ar 2.25531 2.24583 4.5049
84 Ar 2.12722 2.27388 8.75998
85 Ar 2.20093 6.70866 -0.135483
86 Ar 2.15892 6.60252 4.38382
87 Ar 2.27121 6.64533 8.89951
88 Ar 2.20875 11.1909 -0.109754
89 Ar 2.23743 11.1609 4.4113
90 Ar 2.20193 11.0792 8.80495
91 Ar 6.67979 2.21618 0.00321968
92 Ar 6.60656 2.08837 4.3909
93 Ar 6.5487 2.12702 8.73569
94 Ar 6.75147 6.72952 -0.0294594
95 Ar 6.78541 6.61723 4.55872
96 Ar 6.8289 6.61649 9.00219
97 Ar 6.5592 11.1701 0.0740693
98 Ar 6.46935 11.0414 4.48094
99 Ar 6.57351 11.2675 8.83567
100 Ar 11.0928 2.1583 0.236224
101 Ar 10.9708 2.17895 4.21434
102 Ar 11.1322 2.06791 8.85065
103 Ar 11.1085 6.64274 -0.039993
104 Ar 11.1276 6.71809 4.45659
105 Ar 11.2306 6.74392 8.9699
106 Ar 10.83 11.134 0.00485054
107 Ar 11.3131 11.0695 4.39068
108 Ar 11.0475 11.1464 8.76704
ITEM: TIMESTEP
98070
ITEM: NUMBER OF ATOMS
108
ITEM: BOX BOUNDS pp pp pp
0.0000000000000000e+00 1.3349999400000000e+01
0.0000000000000000e+00 1.3349999400000000e+01
0.0000000000000000e+00 1.3349999400000000e+01
ITEM: ATOMS id element xu yu zu
1 Ar -0.208325 -0.0575512 0.0292549
2 Ar 0.109673 0.116557 4.52966
3 Ar -0.203367 0.0309122 8.94561
4 Ar 0.146151 4.52327 -0.111207
5 Ar -0.0222323 4.27957 4.24245
6 Ar -0.154934 4.49768 8.84943
7 Ar -0.358157 8.91479 0.0169083
8 Ar 0.0224916 8.92414 4.3516
9 Ar 0.163888 8.85548 8.90305
10 Ar 4.36513 0.189411 0.0545272
11 Ar 4.31055 0.00208779 4.34621
12 Ar 4.31426 0.0700135 8.93304
13 Ar 4.52708 4.68829 0.166915
14 Ar 4.48112 4.3786 4.51833
15 Ar 4.51768 4.55277 8.87216
16 Ar 4.59884 8.89115 0.139088
17 Ar 4.46749 8.71987 4.65266
18 Ar 4.53716 8.91449 8.80963
19 Ar 8.77536 0.104898 0.0777507
20 Ar 8.85171 -0.0803575 4.49625
21 Ar 8.94312 0.0757658 8.9741
22 Ar 8.93177 4.46934 0.0755609
23 Ar 8.71392 4.40942 4.49421
24 Ar 9.12813 4.30375 9.14211
25 Ar 8.78706 8.89766 0.0528495
26 Ar 8.83491 9.03431 4.53516
27 Ar 9.02468 9.0047 8.83937
28 Ar 0.0995805 2.42036 2.08941
29 Ar -0.170807 2.15497 6.53372
30 Ar -0.040887 2.19959 11.1632
31 Ar -0.0995999 6.48501 2.2345
32 Ar 0.0500922 6.50877 6.49599
33 Ar 0.187723 6.73246 10.967
34 Ar 0.172619 11.1885 2.02535
35 Ar 0.0499061 11.2088 6.69762
36 Ar 0.0307066 11.0559 10.9689
37 Ar 4.59409 2.39695 2.02852
38 Ar 4.43298 2.18536 6.57563
39 Ar 4.34626 2.35876 11.2339
40 Ar 4.44367 6.6969 2.51733
41 Ar 4.46724 6.61877 6.70921
42 Ar 4.62498 6.71536 11.1872
43 Ar 4.36484 11.1327 2.10252
44 Ar 4.28319 10.8911 6.68579
45 Ar 4.29142 11.1268 11.1952
46 Ar 8.80875 2.06596 2.32599
47 Ar 8.75193 2.10406 6.61311
48 Ar 8.95407 2.23617 11.3259
49 Ar 8.84494 6.65817 2.34225
50 Ar 9.02326 6.72687 6.86297
51 Ar 8.88171 6.70128 10.978
52 Ar 8.91093 11.1413 2.2516
53 Ar 8.92223 11.3517 6.74775
54 Ar 8.92247 11.2135 11.1113
55 Ar 2.33324 0.166859 2.32124
56 Ar 2.20202 0.0376223 6.72876
57 Ar 2.051 0.0172692 11.1816
58 Ar 2.32988 4.41024 2.1812
59 Ar 2.335 4.38204 6.63961
60 Ar 2.44505 4.40724 10.9987
61 Ar 2.34441 8.8676 2.22145
62 Ar 2.13029 8.71025 6.65587
63 Ar 2.50223 8.81819 11.1033
64 Ar 6.67876 -0.0314708 2.32312
65 Ar 6.58048 -0.21708 6.56685
66 Ar 6.61132 0.169744 11.0117
67 Ar 6.78441 4.59382 2.29753
68 Ar 6.82 4.54043 6.77307
69 Ar 6.78669 4.34196 11.032
70 Ar 6.66288 8.93096 2.40238
71 Ar 6.76641 8.93057 6.84254
72 Ar 6.88463 9.0853 11.0419
73 Ar 11.1112 -0.108725 2.27495
74 Ar 11.0862 0.0323096 6.51204
75 Ar 11.0606 0.106389 11.2538
76 Ar 11.0661 4.24762 2.18431
77 Ar 11.0067 4.29804 6.59289
78 Ar 11.264 4.34328 11.236
79 Ar 11.1811 8.97647 2.2923
80 Ar 11.3486 8.88612 6.72849
81 Ar 10.9959 8.90966 11.0346
82 Ar 2.15222 2.32195 -0.00437417
83 Ar 2.26355 2.25507 4.50047
84 Ar 2.13359 2.2635 8.74419
85 Ar 2.22198 6.71748 -0.130012
86 Ar 2.17421 6.58334 4.40138
87 Ar 2.27047 6.64541 8.88418
88 Ar 2.20897 11.2025 -0.099956
89 Ar 2.23477 11.1406 4.41997
90 Ar 2.20997 11.0842 8.78439
91 Ar 6.6787 2.21701 0.0160272
92 Ar 6.59546 2.0659 4.39574
93 Ar 6.55332 2.12111 8.73548
94 Ar 6.74808 6.72692 -0.0225607
95 Ar 6.80301 6.59301 4.557
96 Ar 6.83594 6.60253 8.99497
97 Ar 6.57144 11.1448 0.0794688
98 Ar 6.48616 11.0445 4.50258
99 Ar 6.60492 11.2724 8.83102
100 Ar 11.0897 2.16308 0.217498
101 Ar 10.9763 2.19383 4.21301
102 Ar 11.1179 2.06552 8.84238
103 Ar 11.1159 6.63544 -0.0459464
104 Ar 11.1297 6.71129 4.44834
105 Ar 11.2212 6.75024 8.97133
106 Ar 10.83 11.1521 0.0014295
107 Ar 11.3317 11.0908 4.39869
108 Ar 11.0684 11.1449 8.77501
ITEM: TIMESTEP
98080
ITEM: NUMBER OF ATOMS
108
ITEM: BOX BOUNDS pp pp pp
0.0000000000000000e+00 1.3349999400000000e+01
0.0000000000000000e+00 1.3349999400000000e+01
0.0000000000000000e+00 1.3349999400000000e+01
ITEM: ATOMS id element xu yu zu
1 Ar -0.205651 -0.050474 0.000456977
2 Ar 0.100488 0.119694 4.53022
3 Ar -0.197679 0.0416691 8.93751
4 Ar 0.13662 4.52019 -0.103999
5 Ar 0.0021411 4.28315 4.25087
6 Ar -0.154657 4.51386 8.85185
7 Ar -0.338925 8.92654 0.019558
8 Ar 0.0103271 8.919 4.35689
9 Ar 0.170981 8.84955 8.87912
10 Ar 4.37214 0.183086 0.0520756
11 Ar 4.30829 0.0258892 4.36734
12 Ar 4.30749 0.0611928 8.94385
13 Ar 4.52871 4.70102 0.17979
14 Ar 4.47403 4.38076 4.52709
15 Ar 4.50899 4.55656 8.86601
16 Ar 4.5903 8.90794 0.121069
17 Ar 4.46339 8.72695 4.64044
18 Ar 4.55949 8.91487 8.80187
19 Ar 8.80534 0.116092 0.0721131
20 Ar 8.83714 -0.0678365 4.50315
21 Ar 8.94924 0.0992897 8.96785
22 Ar 8.93151 4.48876 0.0738743
23 Ar 8.71031 4.40584 4.516
24 Ar 9.12195 4.30366 9.14046
25 Ar 8.78749 8.90992 0.0476826
26 Ar 8.83789 9.03989 4.5699
27 Ar 9.01188 8.99369 8.83412
28 Ar 0.0965465 2.4258 2.08776
29 Ar -0.172456 2.13671 6.53062
30 Ar -0.0446217 2.21448 11.1568
31 Ar -0.114567 6.48237 2.22806
32 Ar 0.0403398 6.49447 6.50331
33 Ar 0.171976 6.70889 10.9796
34 Ar 0.142354 11.2076 2.06174
35 Ar 0.0483004 11.2182 6.72224
36 Ar 0.0463178 11.0488 10.9663
37 Ar 4.60037 2.38257 2.05513
38 Ar 4.43591 2.19417 6.57445
39 Ar 4.33203 2.34308 11.2168
40 Ar 4.43594 6.67847 2.50607
41 Ar 4.45928 6.64643 6.68231
42 Ar 4.61878 6.7147 11.1979