ITEM: TIMESTEP
32000
ITEM: NUMBER OF ATOMS
108
ITEM: BOX BOUNDS pp pp pp
0.0000000000000000e+00 1.3349999400000000e+01
0.0000000000000000e+00 1.3349999400000000e+01
0.0000000000000000e+00 1.3349999400000000e+01
ITEM: ATOMS id element xu yu zu
1 Ar -0.0638986 -0.055855 -0.0776207
2 Ar 0.0496836 0.168537 4.49467
3 Ar 0.252065 0.136659 8.99
4 Ar -0.0889144 4.61774 0.132497
5 Ar -0.0979968 4.42438 4.17034
6 Ar 0.111155 4.54655 9.01081
7 Ar -0.149991 8.85822 0.0190813
8 Ar -0.12121 8.952 4.56477
9 Ar -0.0272821 8.74911 8.96416
10 Ar 4.4662 -0.0346357 -0.062364
11 Ar 4.45099 -0.0196301 4.40586
12 Ar 4.43274 -0.0762777 8.81834
13 Ar 4.517 4.64032 -0.0694891
14 Ar 4.48082 4.60331 4.61565
15 Ar 4.35476 4.38586 9.00194
16 Ar 4.38407 8.85418 0.293994
17 Ar 4.37698 8.82192 4.39516
18 Ar 4.32493 8.9679 8.93952
19 Ar 8.93355 -0.0581574 -0.166043
20 Ar 8.88077 -0.0865859 4.36157
21 Ar 8.8428 0.0267982 8.8079
22 Ar 8.96539 4.47786 -0.0451906
23 Ar 9.07418 4.42793 4.57677
24 Ar 8.92318 4.37113 8.87475
25 Ar 9.01437 8.80713 -0.0291719
26 Ar 8.79309 8.85073 4.28014
27 Ar 8.66197 8.87973 8.76873
28 Ar 0.231852 2.16534 2.2305
29 Ar 0.0371646 2.25551 6.52816
30 Ar -0.073196 2.23668 11.2364
31 Ar -0.0466496 6.6747 2.37977
32 Ar 0.04843 6.5305 6.70572
33 Ar -0.161932 6.60254 11.2112
34 Ar 0.0122373 11.1838 2.32721
35 Ar -0.0769981 11.1923 6.65797
36 Ar -0.0249391 11.0847 11.0417
37 Ar 4.59318 2.38716 2.29692
38 Ar 4.5287 2.28556 6.67869
39 Ar 4.36484 2.26456 11.2271
40 Ar 4.41282 6.69683 2.3483
41 Ar 4.44567 6.67697 6.82453
42 Ar 4.45199 6.78475 11.0785
43 Ar 4.38431 11.0622 2.1982
44 Ar 4.58316 10.9246 6.68292
45 Ar 4.55074 11.2283 11.087
46 Ar 8.95289 2.09072 2.05024
47 Ar 8.9299 2.2399 6.61474
48 Ar 9.0187 2.16218 11.0612
49 Ar 8.93532 6.70598 2.03063
50 Ar 8.73522 6.65732 6.64061
51 Ar 8.92397 6.72894 11.0097
52 Ar 8.96178 11.0371 2.1821
53 Ar 8.88605 11.0381 6.54719
54 Ar 8.74518 10.9285 11.1722
55 Ar 2.33622 -0.0300305 2.20989
56 Ar 2.51015 0.00410116 6.57409
57 Ar 2.09724 0.0081582 11.3075
58 Ar 2.18295 4.64268 2.29465
59 Ar 2.24769 4.43291 6.6984
60 Ar 2.11759 4.49523 11.3399
61 Ar 2.15362 8.7685 2.39555
62 Ar 2.15015 8.94912 6.68476
63 Ar 2.24213 8.94981 11.3805
64 Ar 6.77902 0.102111 2.09612
65 Ar 6.64194 0.125834 6.62375
66 Ar 6.69053 0.0424903 11.244
67 Ar 6.83012 4.36764 2.10145
68 Ar 6.70911 4.47211 6.95249
69 Ar 6.97132 4.4096 11.0291
70 Ar 6.61264 8.9535 2.28232
71 Ar 6.61524 8.78793 6.69943
72 Ar 6.54505 8.88209 11.2185
73 Ar 11.256 -0.0497451 2.1707
74 Ar 11.0696 -0.0563621 6.58518
75 Ar 11.1607 0.0477578 11.0367
76 Ar 11.0625 4.41657 2.06253
77 Ar 11.2568 4.33969 6.73069
78 Ar 11.2639 4.51198 11.0402
79 Ar 11.0658 8.85707 2.18084
80 Ar 11.0424 8.87718 6.61086
81 Ar 11.1119 8.86874 10.8814
82 Ar 2.32278 2.22126 0.198865
83 Ar 2.18923 2.55722 4.43635
84 Ar 2.32119 2.24853 8.83911
85 Ar 2.07973 6.75756 0.0688596
86 Ar 2.05288 6.70662 4.55927
87 Ar 2.22859 6.52469 9.12235
88 Ar 2.29578 11.131 0.0748556
89 Ar 2.32634 11.1312 4.49598
90 Ar 2.23279 11.0952 8.78591
91 Ar 6.64701 2.23037 -0.136004
92 Ar 6.78677 2.11817 4.30339
93 Ar 6.55581 2.22218 9.06872
94 Ar 6.60426 6.69353 -0.144878
95 Ar 6.88227 6.50781 4.33605
96 Ar 6.49959 6.63912 9.01437
97 Ar 6.55829 11.1092 0.128963
98 Ar 6.68534 11.3843 4.42546
99 Ar 6.58818 11.0103 8.75361
100 Ar 11.1512 2.2281 0.00179503
101 Ar 11.1078 2.21492 4.38898
102 Ar 11.1777 2.12231 8.73875
103 Ar 11.1884 6.6764 0.107876
104 Ar 11.1446 6.68102 4.59267
105 Ar 11.0782 6.60922 8.74642
106 Ar 11.1579 11.1214 -0.0573717
107 Ar 11.0889 11.2428 4.50067
108 Ar 10.9844 11.3263 8.88128
ITEM: TIMESTEP
32010
ITEM: NUMBER OF ATOMS
108
ITEM: BOX BOUNDS pp pp pp
0.0000000000000000e+00 1.3349999400000000e+01
0.0000000000000000e+00 1.3349999400000000e+01
0.0000000000000000e+00 1.3349999400000000e+01
ITEM: ATOMS id element xu yu zu
1 Ar -0.061952 -0.0580413 -0.0947761
2 Ar 0.0611191 0.150948 4.50143
3 Ar 0.249066 0.144184 9.00925
4 Ar -0.0844061 4.61143 0.141447
5 Ar -0.102597 4.40314 4.20419
6 Ar 0.100398 4.53586 9.00709
7 Ar -0.187513 8.84473 0.00908621
8 Ar -0.0972481 8.97464 4.57612
9 Ar -0.0263796 8.76353 8.96467
10 Ar 4.48863 -0.0323613 -0.0740345
11 Ar 4.45327 0.00485243 4.40255
12 Ar 4.42926 -0.0605632 8.83683
13 Ar 4.5541 4.63932 -0.070864
14 Ar 4.47885 4.61687 4.59987
15 Ar 4.3533 4.39061 8.99305
16 Ar 4.3918 8.84684 0.300592
17 Ar 4.36609 8.83422 4.39229
18 Ar 4.32407 8.96704 8.95993
19 Ar 8.93821 -0.0635634 -0.146251
20 Ar 8.88134 -0.0947956 4.37051
21 Ar 8.83286 0.0175643 8.80094
22 Ar 8.96491 4.4742 -0.0384515
23 Ar 9.08763 4.41734 4.59253
24 Ar 8.91365 4.37181 8.86213
25 Ar 9.03661 8.81186 -0.0383363
26 Ar 8.79227 8.86327 4.29748
27 Ar 8.67684 8.88239 8.77105
28 Ar 0.205577 2.17044 2.23725
29 Ar 0.0421425 2.27124 6.53626
30 Ar -0.0782197 2.24476 11.2393
31 Ar -0.0394634 6.70264 2.38035
32 Ar 0.0459355 6.52943 6.69918
33 Ar -0.164141 6.6095 11.2146
34 Ar 0.0021042 11.1963 2.30665
35 Ar -0.0596658 11.1644 6.63778
36 Ar -0.033286 11.0892 11.0242
37 Ar 4.59002 2.4015 2.29197
38 Ar 4.53311 2.29858 6.67743
39 Ar 4.37315 2.24935 11.2042
40 Ar 4.40795 6.69269 2.33179
41 Ar 4.43971 6.65739 6.80712
42 Ar 4.45369 6.7983 11.0609
43 Ar 4.38439 11.0703 2.20784
44 Ar 4.58336 10.9269 6.6737
45 Ar 4.57374 11.2171 11.0744
46 Ar 8.94049 2.09075 2.05031
47 Ar 8.9222 2.23605 6.62443
48 Ar 9.02073 2.17276 11.0452
49 Ar 8.94713 6.68701 2.02877
50 Ar 8.74478 6.64501 6.64866
51 Ar 8.9362 6.72659 11.0201
52 Ar 8.91427 11.0386 2.19983
53 Ar 8.87721 11.0578 6.54709
54 Ar 8.73569 10.94 11.1749
55 Ar 2.32744 -0.0370246 2.19466
56 Ar 2.49161 -0.00710422 6.59567
57 Ar 2.09025 0.0105162 11.3178
58 Ar 2.19453 4.62992 2.29189
59 Ar 2.24188 4.45584 6.68766
60 Ar 2.15295 4.48501 11.3374
61 Ar 2.12601 8.77232 2.39076
62 Ar 2.13346 8.95261 6.6581
63 Ar 2.23728 8.93501 11.3754
64 Ar 6.77614 0.100922 2.09596
65 Ar 6.65505 0.151267 6.62688
66 Ar 6.68997 0.0219473 11.2614
67 Ar 6.83922 4.37458 2.12539
68 Ar 6.7266 4.46469 6.96376
69 Ar 6.9735 4.41093 11.0129
70 Ar 6.6207 8.94086 2.29999
71 Ar 6.62963 8.80143 6.71071
72 Ar 6.56451 8.88702 11.2078
73 Ar 11.2718 -0.0484522 2.17499
74 Ar 11.0646 -0.0670754 6.60341
75 Ar 11.1605 0.0565708 11.0381
76 Ar 11.052 4.41451 2.06886
77 Ar 11.2458 4.36011 6.74585
78 Ar 11.244 4.50971 11.0354
79 Ar 11.0434 8.86323 2.2019
80 Ar 11.039 8.88842 6.59354
81 Ar 11.0997 8.86949 10.8907
82 Ar 2.31921 2.21821 0.190642
83 Ar 2.20376 2.52682 4.42941
84 Ar 2.31784 2.25735 8.83852
85 Ar 2.09356 6.75608 0.0738709
86 Ar 2.05643 6.7037 4.55796
87 Ar 2.22853 6.53381 9.13098
88 Ar 2.27317 11.1219 0.0562989
89 Ar 2.32766 11.1265 4.47283
90 Ar 2.24804 11.0867 8.79753
91 Ar 6.64506 2.22251 -0.131104
92 Ar 6.77995 2.12521 4.30475
93 Ar 6.55169 2.21881 9.07209
94 Ar 6.62222 6.70887 -0.163887
95 Ar 6.87527 6.48282 4.35278
96 Ar 6.49173 6.62483 9.02646
97 Ar 6.53378 11.1119 0.128387
98 Ar 6.66874 11.373 4.42362
99 Ar 6.61505 10.9978 8.73796
100 Ar 11.1745 2.23375 -0.0112881
101 Ar 11.1239 2.19411 4.38873
102 Ar 11.1835 2.13459 8.73304
103 Ar 11.1987 6.67473 0.109033
104 Ar 11.1367 6.66507 4.58633
105 Ar 11.0747 6.5943 8.74695
106 Ar 11.1432 11.1307 -0.0691664
107 Ar 11.0731 11.235 4.504
108 Ar 10.9853 11.3518 8.88197
ITEM: TIMESTEP
32020
ITEM: NUMBER OF ATOMS
108
ITEM: BOX BOUNDS pp pp pp
0.0000000000000000e+00 1.3349999400000000e+01
0.0000000000000000e+00 1.3349999400000000e+01
0.0000000000000000e+00 1.3349999400000000e+01
ITEM: ATOMS id element xu yu zu
1 Ar -0.0594342 -0.0600651 -0.109532
2 Ar 0.0737161 0.130655 4.50766
3 Ar 0.243631 0.149977 9.02526
4 Ar -0.0775638 4.60139 0.149654
5 Ar -0.10829 4.38254 4.24163
6 Ar 0.0888029 4.52175 9.00204
7 Ar -0.222698 8.83372 -0.000731946
8 Ar -0.0731804 8.99699 4.58561
9 Ar -0.0240991 8.77907 8.96316
10 Ar 4.50992 -0.028968 -0.0834128
11 Ar 4.45586 0.0310679 4.39826
12 Ar 4.42664 -0.0441818 8.85716
13 Ar 4.58985 4.63639 -0.0714699
14 Ar 4.47825 4.629 4.58265
15 Ar 4.35305 4.39624 8.98501
16 Ar 4.39945 8.83919 0.302941
17 Ar 4.35745 8.84637 4.39187
18 Ar 4.3233 8.96446 8.98024
19 Ar 8.9437 -0.0693437 -0.124991
20 Ar 8.88351 -0.100286 4.37935
21 Ar 8.8212 0.00811851 8.79525
22 Ar 8.96403 4.46995 -0.0339435
23 Ar 9.09922 4.40643 4.60545
24 Ar 8.90691 4.37286 8.84947
25 Ar 9.05653 8.81802 -0.0483437
26 Ar 8.79261 8.87589 4.31751
27 Ar 8.69536 8.88448 8.77545
28 Ar 0.176015 2.17553 2.24225
29 Ar 0.0477493 2.28647 6.54712
30 Ar -0.0808381 2.25435 11.2411
31 Ar -0.0339769 6.73209 2.37977
32 Ar 0.0427361 6.53021 6.69319
33 Ar -0.163577 6.61937 11.2169
34 Ar -0.00717877 11.2068 2.28564
35 Ar -0.0414515 11.1375 6.61972
36 Ar -0.0412224 11.0933 11.0068
37 Ar 4.58453 2.41505 2.28619
38 Ar 4.53739 2.31181 6.67489
39 Ar 4.38088 2.23398 11.1808
40 Ar 4.40479 6.68631 2.3147
41 Ar 4.43274 6.639 6.78874
42 Ar 4.45339 6.81 11.0464
43 Ar 4.38524 11.0802 2.21968
44 Ar 4.58126 10.9318 6.6623
45 Ar 4.59432 11.2046 11.0624
46 Ar 8.92928 2.09226 2.05171
47 Ar 8.91372 2.23133 6.63452
48 Ar 9.0228 2.18389 11.0296
49 Ar 8.95712 6.66711 2.03006
50 Ar 8.75673 6.63313 6.65799
51 Ar 8.94884 6.72395 11.031
52 Ar 8.86671 11.0419 2.21631
53 Ar 8.86695 11.0779 6.54832
54 Ar 8.72737 10.9537 11.1761
55 Ar 2.31801 -0.0432286 2.18053
56 Ar 2.46942 -0.0178629 6.61751
57 Ar 2.0869 0.0128998 11.3257
58 Ar 2.20818 4.61593 2.28715
59 Ar 2.23566 4.47934 6.67772
60 Ar 2.18886 4.47337 11.3349
61 Ar 2.0973 8.77899 2.38417
62 Ar 2.1175 8.95434 6.63249
63 Ar 2.23198 8.92052 11.3673
64 Ar 6.77103 0.097536 2.09561
65 Ar 6.66829 0.175039 6.63122
66 Ar 6.68998 0.000142873 11.275
67 Ar 6.84784 4.38303 2.15019
68 Ar 6.74216 4.45595 6.97085
69 Ar 6.97142 4.41294 10.9994
70 Ar 6.62972 8.92686 2.31704
71 Ar 6.64327 8.81391 6.71827
72 Ar 6.58455 8.89322 11.1965
73 Ar 11.2854 -0.0460398 2.1797
74 Ar 11.0607 -0.0753471 6.62224
75 Ar 11.1598 0.0641161 11.0397
76 Ar 11.0411 4.4119 2.07916
77 Ar 11.2343 4.38124 6.75982
78 Ar 11.2203 4.5053 11.0315
79 Ar 11.0232 8.8709 2.22544
80 Ar 11.0357 8.90011 6.57882
81 Ar 11.0865 8.87128 10.9016
82 Ar 2.3156 2.21677 0.180489
83 Ar 2.22135 2.4924 4.42257
84 Ar 2.31313 2.26575 8.83925
85 Ar 2.10882 6.75391 0.0786638
86 Ar 2.06224 6.69994 4.55703
87 Ar 2.22805 6.54656 9.13731
88 Ar 2.24879 11.1121 0.0376087
89 Ar 2.32708 11.1222 4.44974
90 Ar 2.26189 11.0792 8.81101
91 Ar 6.64399 2.21635 -0.125166
92 Ar 6.77309 2.13534 4.30848
93 Ar 6.54876 2.21376 9.0738
94 Ar 6.64232 6.7241 -0.180158
95 Ar 6.86571 6.459 4.3697
96 Ar 6.48662 6.61197 9.0374
97 Ar 6.51184 11.1136 0.1265
98 Ar 6.65102 11.3574 4.42113
99 Ar 6.64355 10.9888 8.72515
100 Ar 11.1976 2.23896 -0.0242497
101 Ar 11.1396 2.17264 4.38773
102 Ar 11.1899 2.14723 8.7293
103 Ar 11.207 6.6731 0.107504
104 Ar 11.128 6.64894 4.57824
105 Ar 11.0708 6.58078 8.74793
106 Ar 11.1278 11.1393 -0.0812143
107 Ar 11.0586 11.2247 4.50468
108 Ar 10.9879 11.3735 8.88263
ITEM: TIMESTEP
32030
ITEM: NUMBER OF ATOMS
108
ITEM: BOX BOUNDS pp pp pp
0.0000000000000000e+00 1.3349999400000000e+01
0.0000000000000000e+00 1.3349999400000000e+01
0.0000000000000000e+00 1.3349999400000000e+01
ITEM: ATOMS id element xu yu zu
1 Ar -0.0566094 -0.0619084 -0.121642
2 Ar 0.0873 0.107991 4.51351
3 Ar 0.235894 0.153971 9.0378
4 Ar -0.0684081 4.58804 0.156996
5 Ar -0.114596 4.36324 4.28168
6 Ar 0.0767946 4.50477 8.99601
7 Ar -0.255033 8.82566 -0.0102754
8 Ar -0.0497613 9.01842 4.59262
9 Ar -0.0207761 8.79544 8.95964
10 Ar 4.52921 -0.024559 -0.0903077
11 Ar 4.45845 0.0586404 4.39332
12 Ar 4.42496 -0.0275064 8.87889
13 Ar 4.62407 4.63161 -0.0715272
14 Ar 4.47876 4.63922 4.56414
15 Ar 4.35394 4.40265 8.97782
16 Ar 4.40689 8.83164 0.301152
17 Ar 4.3511 8.85793 4.39361
18 Ar 4.32279 8.96029 8.99953
19 Ar 8.94993 -0.0751808 -0.102586
20 Ar 8.88696 -0.102867 4.38788
21 Ar 8.80797 -0.0012438 8.79118
22 Ar 8.9626 4.46497 -0.0317981
23 Ar 9.10885 4.39506 4.61542
24 Ar 8.90317 4.37428 8.83722
25 Ar 9.07391 8.82548 -0.0587264
26 Ar 8.79388 8.88806 4.34011
27 Ar 8.71755 8.88578 8.7818
28 Ar 0.143896 2.18051 2.24548
29 Ar 0.0539281 2.30085 6.56046
30 Ar -0.0808033 2.26553 11.2415
31 Ar -0.0304022 6.76187 2.37842
32 Ar 0.0387081 6.53304 6.68788
33 Ar -0.160293 6.63141 11.2179
34 Ar -0.0156305 11.215 2.26435
35 Ar -0.022781 11.1125 6.60436
36 Ar -0.0487069 11.0969 10.9898
37 Ar 4.57692 2.42766 2.27948
38 Ar 4.54123 2.32508 6.67112
39 Ar 4.38802 2.21861 11.1575
40 Ar 4.40339 6.67806 2.29739
41 Ar 4.42522 6.62244 6.76985
42 Ar 4.45122 6.81963 11.0357
43 Ar 4.38671 11.0915 2.2331
44 Ar 4.57689 10.9394 6.6493
45 Ar 4.61211 11.1909 11.0512
46 Ar 8.91965 2.09518 2.05443
47 Ar 8.90494 2.22579 6.64483
48 Ar 9.02478 2.19514 11.0149
49 Ar 8.96508 6.64689 2.03457
50 Ar 8.77079 6.62207 6.66841
51 Ar 8.96171 6.72092 11.0423
52 Ar 8.81975 11.047 2.23118
53 Ar 8.85543 11.0981 6.55089
54 Ar 8.72042 10.9697 11.1758
55 Ar 2.30804 -0.0484621 2.16738
56 Ar 2.44418 -0.0281421 6.63929
57 Ar 2.0875 0.0152575 11.3312
58 Ar 2.22321 4.60081 2.28076
59 Ar 2.22916 4.50274 6.66856
60 Ar 2.22478 4.46065 11.3324
61 Ar 2.06827 8.78859 2.37568
62 Ar 2.10301 8.9543 6.60866
63 Ar 2.22609 8.90654 11.3565
64 Ar 6.76366 0.0921308 2.09535
65 Ar 6.6811 0.196668 6.63655
66 Ar 6.69102 -0.0223805 11.2845
67 Ar 6.85589 4.39281 2.17538
68 Ar 6.75527 4.44603 6.97349
69 Ar 6.96519 4.41549 10.9891
70 Ar 6.63939 8.91142 2.33318
71 Ar 6.65586 8.82477 6.72203
72 Ar 6.60504 8.90049 11.1846
73 Ar 11.2962 -0.0425493 2.18467
74 Ar 11.0582 -0.081063 6.64118
75 Ar 11.1583 0.0705015 11.0417
76 Ar 11.0305 4.40869 2.0933
77 Ar 11.2222 4.40253 6.77225
78 Ar 11.1935 4.49904 11.0287
79 Ar 11.0054 8.88012 2.25111
80 Ar 11.0323 8.91196 6.56688
81 Ar 11.0724 8.87418 10.9134
82 Ar 2.31193 2.21693 0.168679
83 Ar 2.24159 2.45452 4.41602
84 Ar 2.30709 2.27376 8.84115
85 Ar 2.1252 6.75097 0.0830781
86 Ar 2.07017 6.69541 4.5561
87 Ar 2.22678 6.5625 9.14113
88 Ar 2.22327 11.1016 0.0190275
89 Ar 2.3247 11.1185 4.42697
90 Ar 2.27416 11.0728 8.82613
91 Ar 6.64394 2.21208 -0.118429
92 Ar 6.76634 2.14843 4.31444
93 Ar 6.54717 2.20704 9.07389
94 Ar 6.66436 6.73904 -0.193531
95 Ar 6.85407 6.43694 4.38683
96 Ar 6.48452 6.60096 9.04662
97 Ar 6.49281 11.1138 0.123508
98 Ar 6.63231 11.3383 4.41828
99 Ar 6.67289 10.9835 8.71524
100 Ar 11.2198 2.24368 -0.0366216
101 Ar 11.1544 2.15068 4.38633
102 Ar 11.197 2.15997 8.72754
103 Ar 11.2129 6.6711 0.103592
104 Ar 11.1186 6.63309 4.56845
105 Ar 11.0669 6.56931 8.74958
106 Ar 11.1121 11.1472 -0.093215
107 Ar 11.0457 11.2124 4.50266
108 Ar 10.9922 11.3909 8.88335
ITEM: TIMESTEP
32040
ITEM: NUMBER OF ATOMS
108
ITEM: BOX BOUNDS pp pp pp
0.0000000000000000e+00 1.3349999400000000e+01
0.0000000000000000e+00 1.3349999400000000e+01
0.0000000000000000e+00 1.3349999400000000e+01
ITEM: ATOMS id element xu yu zu
1 Ar -0.0537101 -0.0635427 -0.130963
2 Ar 0.101646 0.0833403 4.51911
3 Ar 0.22602 0.156148 9.04672
4 Ar -0.0570585 4.57194 0.163383
5 Ar -0.121009 4.34577 4.32337
6 Ar 0.064767 4.48553 8.98935
7 Ar -0.284066 8.82096 -0.0194259
8 Ar -0.0277554 9.03827 4.59653
9 Ar -0.016772 8.81234 8.95412
10 Ar 4.54572 -0.0192351 -0.0945951
11 Ar 4.46081 0.08712 4.38806
12 Ar 4.4242 -0.010924 8.90149
13 Ar 4.65665 4.62509 -0.0712325
14 Ar 4.4801 4.64706 4.54453
15 Ar 4.35587 4.40977 8.97141
16 Ar 4.414 8.82457 0.295425
17 Ar 4.34702 8.86843 4.39717
18 Ar 4.32276 8.95472 9.01692
19 Ar 8.95676 -0.0807537 -0.0793538
20 Ar 8.89134 -0.102445 4.39594
21 Ar 8.79344 -0.0102567 8.78906
22 Ar 8.96053 4.45918 -0.0320377
23 Ar 9.11638 4.38309 4.62241
24 Ar 8.90246 4.37602 8.82583
25 Ar 9.08854 8.83413 -0.0689603
26 Ar 8.79582 8.89935 4.36513
27 Ar 8.74329 8.88614 8.7899
28 Ar 0.110018 2.18536 2.247
29 Ar 0.0606243 2.31396 6.57597
30 Ar -0.0779182 2.27828 11.2405
31 Ar -0.028935 6.7909 2.37658
32 Ar 0.0337328 6.53811 6.68335
33 Ar -0.154432 6.64485 11.2174
34 Ar -0.0233063 11.2207 2.24293
35 Ar -0.00411042 11.0901 6.59224
36 Ar -0.0557037 11.1 10.9736
37 Ar 4.56749 2.43918 2.27176
38 Ar 4.5443 2.33826 6.66624
39 Ar 4.39458 2.20343 11.1347
40 Ar 4.40375 6.66835 2.28017
41 Ar 4.41758 6.60827 6.75091
42 Ar 4.44742 6.82697 11.0294
43 Ar 4.38868 11.1039 2.24746
44 Ar 4.57034 10.9495 6.63537
45 Ar 4.62684 11.1762 11.0409
46 Ar 8.91181 2.09937 2.05845
47 Ar 8.89633 2.21952 6.6552
48 Ar 9.02649 2.20611 11.0012
49 Ar 8.97093 6.62698 2.04224
50 Ar 8.7866 6.61216 6.67971
51 Ar 8.97459 6.71736 11.0535
52 Ar 8.77407 11.0537 2.24419
53 Ar 8.84287 11.1182 6.55475
54 Ar 8.71504 10.9878 11.174
55 Ar 2.29761 -0.0525615 2.15511
56 Ar 2.41652 -0.0378996 6.66077
57 Ar 2.0922 0.0175305 11.334
58 Ar 2.23893 4.58468 2.2731
59 Ar 2.2225 4.52537 6.66018
60 Ar 2.26022 4.44724 11.3298
61 Ar 2.03977 8.80114 2.36521
62 Ar 2.09076 8.95245 6.58735
63 Ar 2.21951 8.89326 11.3434
64 Ar 6.75406 0.084983 2.09548
65 Ar 6.69293 0.215696 6.64259
66 Ar 6.69347 -0.0450423 11.2897
67 Ar 6.86331 4.40368 2.20054
68 Ar 6.76554 4.43512 6.97151
69 Ar 6.95502 4.4184 10.9822
70 Ar 6.64943 8.89443 2.34816
71 Ar 6.66716 8.83354 6.72209
72 Ar 6.62584 8.90858 11.1721
73 Ar 11.304 -0.0380831 2.18979
74 Ar 11.0574 -0.0841691 6.6597
75 Ar 11.1558 0.0758509 11.044
76 Ar 11.0204 4.40486 2.11097
77 Ar 11.2098 4.42339 6.78285
78 Ar 11.1643 4.49129 11.027
79 Ar 10.9899 8.89081 2.27848
80 Ar 11.029 8.92364 6.55783
81 Ar 11.0579 8.87826 10.9257
82 Ar 2.3082 2.21857 0.155506
83 Ar 2.2639 2.41379 4.40988
84 Ar 2.2998 2.2814 8.84405
85 Ar 2.14236 6.7472 0.0869612
86 Ar 2.07998 6.6902 4.55474
87 Ar 2.2244 6.58114 9.14228
88 Ar 2.19719 11.0904 0.000772827
89 Ar 2.32069 11.1159 4.4048
90 Ar 2.28475 11.0677 8.84265
91 Ar 6.64502 2.20976 -0.111149
92 Ar 6.75983 2.16426 4.3224
93 Ar 6.54707 2.19875 9.07242
94 Ar 6.68808 6.75352 -0.203892
95 Ar 6.84088 6.4172 4.4043
96 Ar 6.48558 6.59216 9.05362
97 Ar 6.47697 11.1121 0.119622
98 Ar 6.61281 11.3161 4.4154
99 Ar 6.7022 10.9821 8.70824
100 Ar 11.2403 2.2479 -0.0479785
101 Ar 11.168 2.12836 4.38489
102 Ar 11.2043 2.17258 8.72774
103 Ar 11.2161 6.66828 0.0976535
104 Ar 11.1088 6.61798 4.55708
105 Ar 11.0631 6.56045 8.75216
106 Ar 11.0962 11.1545 -0.104889
107 Ar 11.0344 11.1983 4.49799
108 Ar 10.9982 11.4035 8.88422
ITEM: TIMESTEP
32050
ITEM: NUMBER OF ATOMS
108
ITEM: BOX BOUNDS pp pp pp
0.0000000000000000e+00 1.3349999400000000e+01
0.0000000000000000e+00 1.3349999400000000e+01
0.0000000000000000e+00 1.3349999400000000e+01
ITEM: ATOMS id element xu yu zu
1 Ar -0.0509182 -0.0649226 -0.137473
2 Ar 0.11648 0.0571273 4.52451
3 Ar 0.214197 0.156536 9.05199
4 Ar -0.0437168 4.55371 0.168754
5 Ar -0.127044 4.33049 4.36578
6 Ar 0.0530668 4.46472 8.98243
7 Ar -0.309435 8.81994 -0.0280513
8 Ar -0.00790275 9.05595 4.59679
9 Ar -0.0124556 8.82951 8.9467
10 Ar 4.55884 -0.0131026 -0.0962331
11 Ar 4.46283 0.115983 4.3828
12 Ar 4.42427 0.00516009 8.92442
13 Ar 4.68752 4.61702 -0.0707526
14 Ar 4.48193 4.65209 4.52402
15 Ar 4.35874 4.41749 8.96571
16 Ar 4.42071 8.81837 0.28603
17 Ar 4.34514 8.87748 4.40217
18 Ar 4.32346 8.94795 9.03161
19 Ar 8.96399 -0.0857453 -0.0556004
20 Ar 8.89627 -0.0990203 4.40336
21 Ar 8.77799 -0.0186862 8.78919
22 Ar 8.95777 4.45248 -0.0345677
23 Ar 9.12173 4.37043 4.62646
24 Ar 8.90466 4.37804 8.81574
25 Ar 9.10027 8.84381 -0.0784909
26 Ar 8.79818 8.9094 4.39233
27 Ar 8.7723 8.8855 8.79947
28 Ar 0.0752217 2.19006 2.24697
29 Ar 0.0677827 2.32542 6.5933
30 Ar -0.0720553 2.29248 11.2379
31 Ar -0.0297433 6.81817 2.37448
32 Ar 0.0277083 6.54555 6.67967
33 Ar -0.146215 6.65891 11.2153
34 Ar -0.0303056 11.2238 2.22153
35 Ar 0.0140966 11.0712 6.58388
36 Ar -0.0621802 11.1024 10.9584
37 Ar 4.55662 2.44946 2.26297
38 Ar 4.54632 2.35116 6.66041
39 Ar 4.40064 2.18862 11.1129
40 Ar 4.40589 6.65764 2.26335
41 Ar 4.41025 6.59693 6.73235
42 Ar 4.44229 6.83186 11.0279
43 Ar 4.39107 11.1171 2.26207
44 Ar 4.56173 10.9622 6.62118
45 Ar 4.63825 11.1607 11.0317
46 Ar 8.9059 2.10469 2.06376
47 Ar 8.8884 2.21264 6.66549
48 Ar 9.02776 2.21642 10.9889
49 Ar 8.97468 6.608 2.05297
50 Ar 8.80376 6.6037 6.69159
51 Ar 8.98725 6.7132 11.0646
52 Ar 8.7303 11.0617 2.25512
53 Ar 8.82957 11.1379 6.55974
54 Ar 8.71146 11.0079 11.1709
55 Ar 2.28682 -0.0553883 2.14357
56 Ar 2.38707 -0.0470831 6.68176
57 Ar 2.10099 0.0196487 11.334
58 Ar 2.25469 4.56764 2.26454
59 Ar 2.21583 4.54658 6.6526
60 Ar 2.29475 4.43355 11.327
61 Ar 2.01267 8.81659 2.35269
62 Ar 2.08147 8.94879 6.5692
63 Ar 2.21212 8.88087 11.3283
64 Ar 6.74231 0.0764554 2.09629
65 Ar 6.70318 0.231705 6.64902
66 Ar 6.69761 -0.0672466 11.2906
67 Ar 6.87001 4.41535 2.22519
68 Ar 6.77267 4.42346 6.9649
69 Ar 6.94116 4.42149 10.9787
70 Ar 6.65955 8.87583 2.36174
71 Ar 6.67698 8.8399 6.71866
72 Ar 6.64681 8.91718 11.1591
73 Ar 11.3086 -0.0328139 2.19489
74 Ar 11.0586 -0.0846738 6.67732
75 Ar 11.1523 0.0802978 11.0466
76 Ar 11.0115 4.4004 2.13177
77 Ar 11.1972 4.44325 6.79131
78 Ar 11.1336 4.48246 11.0264
79 Ar 10.9769 8.90287 2.30704
80 Ar 11.026 8.93489 6.55174
81 Ar 11.0435 8.88354 10.9379
82 Ar 2.30437 2.22157 0.141269
83 Ar 2.28761 2.37095 4.40427
84 Ar 2.2914 2.2887 8.84776
85 Ar 2.15995 6.74255 0.0901772
86 Ar 2.09141 6.68446 4.55249
87 Ar 2.22065 6.60186 9.14065
88 Ar 2.17111 11.0784 -0.0169744
89 Ar 2.31519 11.1148 4.38352
90 Ar 2.29363 11.0638 8.86031
91 Ar 6.64736 2.20935 -0.103587
92 Ar 6.75365 2.1826 4.33213
93 Ar 6.54859 2.18913 9.06945
94 Ar 6.71318 6.76742 -0.211172
95 Ar 6.82671 6.40035 4.42224
96 Ar 6.48989 6.58586 9.058
97 Ar 6.46449 11.1083 0.115046
98 Ar 6.59278 11.2916 4.41279
99 Ar 6.73066 10.9847 8.70411
100 Ar 11.2586 2.25159 -0.057964
101 Ar 11.1801 2.10584 4.38382
102 Ar 11.2117 2.18482 8.72988
103 Ar 11.2166 6.6642 0.0900736
104 Ar 11.0991 6.60403 4.54429
105 Ar 11.0599 6.5547 8.75597
106 Ar 11.0804 11.1611 -0.115981
107 Ar 11.0251 11.183 4.49085
108 Ar 11.0058 11.4111 8.88531
ITEM: TIMESTEP
32060
ITEM: NUMBER OF ATOMS
108
ITEM: BOX BOUNDS pp pp pp
0.0000000000000000e+00 1.3349999400000000e+01
0.0000000000000000e+00 1.3349999400000000e+01
0.0000000000000000e+00 1.3349999400000000e+01
ITEM: ATOMS id element xu yu zu
1 Ar -0.0483529 -0.0659835 -0.14127
2 Ar 0.131476 0.0298067 4.5297
3 Ar 0.200632 0.155197 9.05372
4 Ar -0.028647 4.53405 0.173059
5 Ar -0.132268 4.31764 4.40803
6 Ar 0.041983 4.44309 8.97556
7 Ar -0.330891 8.82282 -0.0360147
8 Ar 0.00912724 9.07092 4.59295
9 Ar -0.00818769 8.84671 8.93745
10 Ar 4.56815 -0.0062827 -0.0952702
11 Ar 4.46448 0.144635 4.37782
12 Ar 4.42504 0.0203215 8.94708
13 Ar 4.71659 4.6076 -0.0702172
14 Ar 4.48389 4.65392 4.50284
15 Ar 4.36242 4.42573 8.96062
16 Ar 4.42695 8.81335 0.273287
17 Ar 4.34534 8.88472 4.40822
18 Ar 4.32513 8.9402 9.04288
19 Ar 8.97136 -0.0898491 -0.0316143
20 Ar 8.90139 -0.0926862 4.40999
21 Ar 8.7621 -0.0263275 8.79181
22 Ar 8.9543 4.44487 -0.0391759
23 Ar 9.12481 4.35702 4.6277
24 Ar 8.90944 4.38027 8.80736
25 Ar 9.10897 8.85439 -0.0867643
26 Ar 8.80071 8.91792 4.42139
27 Ar 8.80417 8.88387 8.81014
28 Ar 0.0403661 2.19464 2.24564
29 Ar 0.0753429 2.33482 6.61207
30 Ar -0.0631738 2.30795 11.2335
31 Ar -0.032947 6.84283 2.37224
32 Ar 0.0205607 6.55547 6.67686
33 Ar -0.13592 6.67288 11.2115
34 Ar -0.0367759 11.224 2.20028
35 Ar 0.0313947 11.0562 6.57968
36 Ar -0.0681045 11.1042 10.9445
37 Ar 4.54474 2.45833 2.25305
38 Ar 4.547 2.36362 6.65386
39 Ar 4.4063 2.17441 11.0927
40 Ar 4.40977 6.64637 2.24714
41 Ar 4.40361 6.58876 6.71457
42 Ar 4.43621 6.83414 11.0315
43 Ar 4.39379 11.1307 2.27628
44 Ar 4.55121 10.9772 6.60739
45 Ar 4.6462 11.1446 11.0237
46 Ar 8.90193 2.11096 2.07034
47 Ar 8.88164 2.20532 6.67561
48 Ar 9.02835 2.22571 10.9781
49 Ar 8.9764 6.59051 2.06654
50 Ar 8.82182 6.59689 6.70373
51 Ar 8.99944 6.70834 11.0753
52 Ar 8.68903 11.0709 2.26389
53 Ar 8.81587 11.1571 6.56565
54 Ar 8.7099 11.0299 11.1664
55 Ar 2.27575 -0.0568366 2.13261
56 Ar 2.35648 -0.0556297 6.70215
57 Ar 2.11371 0.021528 11.3311
58 Ar 2.26987 4.54985 2.25545
59 Ar 2.20928 4.56578 6.6459
60 Ar 2.32797 4.42002 11.3241
61 Ar 1.98783 8.83482 2.3381
62 Ar 2.07577 8.94331 6.55475
63 Ar 2.20385 8.86954 11.3116
64 Ar 6.72855 0.0669801 2.09805
65 Ar 6.71131 0.244332 6.6555
66 Ar 6.70357 -0.0884037 11.2875
67 Ar 6.87587 4.42751 2.24886
68 Ar 6.77655 4.4113 6.95377
69 Ar 6.92396 4.42458 10.9787
70 Ar 6.66949 8.85555 2.37374
71 Ar 6.68519 8.84368 6.71213
72 Ar 6.66781 8.92597 11.1456
73 Ar 11.3097 -0.0269865 2.19987
74 Ar 11.0619 -0.0826508 6.69359
75 Ar 11.1477 0.083978 11.0494
76 Ar 11.0041 4.39529 2.15518
77 Ar 11.1846 4.4616 6.7974
78 Ar 11.1022 4.47292 11.027
79 Ar 10.9661 8.91609 2.33618
80 Ar 11.0233 8.94547 6.54863
81 Ar 11.0296 8.89002 10.9497
82 Ar 2.30044 2.22573 0.126261
83 Ar 2.31193 2.32675 4.39926
84 Ar 2.28209 2.29562 8.85214
85 Ar 2.17763 6.73699 0.0926142
86 Ar 2.10413 6.67837 4.54887
87 Ar 2.21537 6.62407 9.13613
88 Ar 2.14551 11.0658 -0.0340775
89 Ar 2.30841 11.1154 4.3634
90 Ar 2.30081 11.0612 8.87885
91 Ar 6.65105 2.21068 -0.0959882
92 Ar 6.7479 2.20314 4.34333
93 Ar 6.55186 2.17849 9.06508
94 Ar 6.7393 6.78059 -0.215344
95 Ar 6.8121 6.38689 4.44082
96 Ar 6.49742 6.58228 9.05949
97 Ar 6.45547 11.1022 0.109963
98 Ar 6.57253 11.2655 4.41075
99 Ar 6.75744 10.991 8.70274
100 Ar 11.2741 2.25475 -0.0663136
101 Ar 11.1905 2.0833 4.38355
102 Ar 11.2188 2.19648 8.73387
103 Ar 11.2143 6.65847 0.0812406
104 Ar 11.0895 6.59158 4.53026
105 Ar 11.0575 6.55243 8.7613
106 Ar 11.0651 11.1669 -0.126258
107 Ar 11.0177 11.1671 4.48148
108 Ar 11.0149 11.4135 8.88666
ITEM: TIMESTEP
32070
ITEM: NUMBER OF ATOMS
108
ITEM: BOX BOUNDS pp pp pp
0.0000000000000000e+00 1.3349999400000000e+01
0.0000000000000000e+00 1.3349999400000000e+01
0.0000000000000000e+00 1.3349999400000000e+01
ITEM: ATOMS id element xu yu zu
1 Ar -0.0460684 -0.0666411 -0.142565
2 Ar 0.146262 0.00185196 4.53462
3 Ar 0.185545 0.152223 9.05207
4 Ar -0.0121591 4.51364 0.176262
5 Ar -0.136327 4.30737 4.4493
6 Ar 0.0317426 4.42145 8.96903
7 Ar -0.348317 8.82962 -0.0431863
8 Ar 0.0227892 9.08277 4.58477
9 Ar -0.00430783 8.8637 8.92649
10 Ar 4.57341 0.00107982 -0.0918462
11 Ar 4.4659 0.172412 4.37335
12 Ar 4.42634 0.0341219 8.96885
13 Ar 4.74379 4.59707 -0.0697135
14 Ar 4.48564 4.65224 4.48126
15 Ar 4.36682 4.43442 8.95602
16 Ar 4.43268 8.80976 0.257552
17 Ar 4.34742 8.88989 4.41493
18 Ar 4.328 8.93168 9.05016
19 Ar 8.97859 -0.0927763 -0.00766516
20 Ar 8.90638 -0.0836236 4.41573
21 Ar 8.74635 -0.0329976 8.79707
22 Ar 8.95013 4.43634 -0.0455412
23 Ar 9.12555 4.34284 4.62633
24 Ar 8.9163 4.38264 8.80097
25 Ar 9.11455 8.86571 -0.0932577
26 Ar 8.80315 8.92473 4.45192
27 Ar 8.83836 8.88138 8.82152
28 Ar 0.00629501 2.19912 2.24329
29 Ar 0.0832352 2.34178 6.6319
30 Ar -0.0513338 2.32439 11.2275
31 Ar -0.0385933 6.86414 2.36993
32 Ar 0.0122534 6.56788 6.67492
33 Ar -0.123876 6.68616 11.2061
34 Ar -0.0429111 11.2216 2.17932
35 Ar 0.0473827 11.0457 6.57993
36 Ar -0.0734449 11.1055 10.9323
37 Ar 4.53235 2.46563 2.24194
38 Ar 4.54611 2.37548 6.64684
39 Ar 4.41171 2.16105 11.0744
40 Ar 4.41537 6.63499 2.23173
41 Ar 4.39801 6.58395 6.69791
42 Ar 4.42958 6.83375 11.0401
43 Ar 4.39677 11.1445 2.28948
44 Ar 4.53895 10.9946 6.5946
45 Ar 4.65059 11.1282 11.0171
46 Ar 8.8998 2.11799 2.07817
47 Ar 8.8765 2.19772 6.68548
48 Ar 9.02802 2.23366 10.9691
49 Ar 8.97626 6.57502 2.08272
50 Ar 8.84034 6.59189 6.71581
51 Ar 9.01093 6.70276 11.0854
52 Ar 8.65082 11.0809 2.27049
53 Ar 8.80218 11.1756 6.57221
54 Ar 8.71062 11.0535 11.1608
55 Ar 2.26445 -0.0568389 2.12207
56 Ar 2.32537 -0.0634651 6.72186
57 Ar 2.13003 0.0230694 11.3254
58 Ar 2.2839 4.53146 2.24616
59 Ar 2.20296 4.58248 6.64016
60 Ar 2.35953 4.40708 11.3209
61 Ar 1.96602 8.85563 2.32139
62 Ar 2.07418 8.93607 6.54439
63 Ar 2.19468 8.85945 11.2937
64 Ar 6.71296 0.0570368 2.10101
65 Ar 6.71678 0.253286 6.66167
66 Ar 6.71128 -0.107951 11.2806
67 Ar 6.88081 4.43984 2.27109
68 Ar 6.77722 4.39894 6.93839
69 Ar 6.90378 4.4275 10.9819
70 Ar 6.67907 8.83359 2.38401
71 Ar 6.69169 8.84487 6.70302
72 Ar 6.68869 8.93461 11.1317
73 Ar 11.3074 -0.0209111 2.20458
74 Ar 11.0675 -0.0782425 6.70816
75 Ar 11.142 0.087022 11.0524
76 Ar 10.9984 4.38959 2.18061
77 Ar 11.1722 4.47799 6.80093
78 Ar 11.0711 4.46302 11.0288
79 Ar 10.9574 8.93023 2.36527
80 Ar 11.0213 8.95522 6.54847
81 Ar 11.0167 8.89768 10.9607
82 Ar 2.29638 2.23083 0.110761
83 Ar 2.33596 2.28202 4.39492
84 Ar 2.2721 2.30215 8.85704
85 Ar 2.19502 6.73055 0.0941913
86 Ar 2.1178 6.67212 4.54346
87 Ar 2.20851 6.6471 9.12869
88 Ar 2.12085 11.0526 -0.0504477
89 Ar 2.30056 11.1179 4.34473
90 Ar 2.30636 11.0599 8.89798
91 Ar 6.65616 2.21352 -0.0885695
92 Ar 6.74263 2.22554 4.35571
93 Ar 6.55694 2.16723 9.05941
94 Ar 6.76605 6.79295 -0.216416
95 Ar 6.79758 6.37725 4.46019
96 Ar 6.50804 6.58155 9.05792
97 Ar 6.4499 11.0937 0.10452
98 Ar 6.55236 11.2383 4.40956
99 Ar 6.78179 11.0006 8.70399
100 Ar 11.2865 2.25737 -0.0728716
101 Ar 11.1992 2.06094 4.38447
102 Ar 11.2256 2.20736 8.73961
103 Ar 11.2093 6.65084 0.0715274
104 Ar 11.0804 6.58094 4.51524
105 Ar 11.0563 6.55389 8.76844
106 Ar 11.0507 11.1722 -0.135512
107 Ar 11.0123 11.1511 4.47025
108 Ar 11.0251 11.4108 8.88825
ITEM: TIMESTEP
32080
ITEM: NUMBER OF ATOMS
108
ITEM: BOX BOUNDS pp pp pp
0.0000000000000000e+00 1.3349999400000000e+01
0.0000000000000000e+00 1.3349999400000000e+01
0.0000000000000000e+00 1.3349999400000000e+01
ITEM: ATOMS id element xu yu zu
1 Ar -0.0440602 -0.0667946 -0.141666
2 Ar 0.160427 -0.0262525 4.53912
3 Ar 0.169158 0.147724 9.04731
4 Ar 0.00540512 4.4932 0.178326
5 Ar -0.138951 4.29971 4.48883
6 Ar 0.0225103 4.40062 8.96305
7 Ar -0.361727 8.84018 -0.0494556
8 Ar 0.0327113 9.09127 4.57228
9 Ar -0.00112423 8.88028 8.91396
10 Ar 4.57462 0.00881138 -0.0861835
11 Ar 4.46733 0.198592 4.36957
12 Ar 4.42799 0.0461205 8.98912
13 Ar 4.76903 4.58571 -0.0692795
14 Ar 4.48685 4.64688 4.45956
15 Ar 4.37182 4.4435 8.9518
16 Ar 4.43787 8.80778 0.239201
17 Ar 4.35117 8.89279 4.42192
18 Ar 4.33225 8.92252 9.05305
19 Ar 8.98537 -0.0942641 0.0159943
20 Ar 8.91094 -0.072091 4.4205
21 Ar 8.73139 -0.0385274 8.80505
22 Ar 8.94527 4.42696 -0.0532503
23 Ar 9.12394 4.32795 4.6226
24 Ar 8.92465 4.3851 8.79678
25 Ar 9.11698 8.87763 -0.09751
26 Ar 8.80531 8.92969 4.48344
27 Ar 8.87419 8.87821 8.83319
28 Ar -0.02619 2.20353 2.24022
29 Ar 0.0913756 2.34595 6.65236
30 Ar -0.0367026 2.34147 11.2198
31 Ar -0.0466341 6.88157 2.36753
32 Ar 0.00279343 6.58275 6.67378
33 Ar -0.110444 6.6982 11.1991
34 Ar -0.0489439 11.2167 2.1588
35 Ar 0.0617267 11.0398 6.58473
36 Ar -0.0781686 11.1062 10.922