ITEM: TIMESTEP
94000
ITEM: NUMBER OF ATOMS
108
ITEM: BOX BOUNDS pp pp pp
0.0000000000000000e+00 1.3349999400000000e+01
0.0000000000000000e+00 1.3349999400000000e+01
0.0000000000000000e+00 1.3349999400000000e+01
ITEM: ATOMS id element xu yu zu
1 Ar 0.000441157 0.130018 -0.145336
2 Ar 0.00848378 0.175861 4.59561
3 Ar 0.208329 0.362193 8.64029
4 Ar 0.0168071 4.28874 0.109562
5 Ar 0.0620474 4.26248 4.47081
6 Ar 0.0157472 4.39931 8.96223
7 Ar -0.0362694 8.88061 0.214565
8 Ar -0.0293066 8.9126 4.77011
9 Ar -0.134275 9.03386 8.84941
10 Ar 4.51445 -0.0413227 -0.179612
11 Ar 4.51066 0.036751 4.51824
12 Ar 4.63863 -0.0228199 8.62688
13 Ar 4.43942 4.37325 0.00742148
14 Ar 4.5161 4.45585 4.55407
15 Ar 4.41032 4.52016 8.88604
16 Ar 4.16048 8.99056 0.19252
17 Ar 4.44917 9.0961 4.20693
18 Ar 4.3482 8.85385 8.89551
19 Ar 8.92166 0.0383394 -0.0571062
20 Ar 9.05732 -0.15997 4.56938
21 Ar 8.97413 0.0742839 8.75388
22 Ar 8.92533 4.45612 0.0668574
23 Ar 8.96865 4.52499 4.32385
24 Ar 8.76363 4.51532 8.79944
25 Ar 8.86467 8.80477 -0.13251
26 Ar 8.81106 9.09139 4.43622
27 Ar 8.72731 8.96603 8.9577
28 Ar 0.096646 2.02803 2.26386
29 Ar 0.0505504 2.31149 6.64207
30 Ar -0.0192709 2.28651 11.1264
31 Ar 0.18235 6.43454 2.30697
32 Ar -0.0894982 6.69427 6.73668
33 Ar -0.0729128 6.67423 11.1407
34 Ar 0.169479 11.2423 2.18455
35 Ar -0.0508423 11.1786 6.61418
36 Ar -0.137589 11.1021 11.1654
37 Ar 4.56128 2.18506 2.28726
38 Ar 4.65743 2.12822 6.68219
39 Ar 4.44674 2.11267 11.0836
40 Ar 4.3513 6.79152 2.28496
41 Ar 4.55256 6.76493 6.35625
42 Ar 4.17157 6.63046 11.1604
43 Ar 4.47133 11.2887 2.22855
44 Ar 4.36707 11.0992 6.64596
45 Ar 4.52766 11.2049 11.0891
46 Ar 8.7867 2.25101 2.30439
47 Ar 8.95483 2.36895 6.72555
48 Ar 8.90182 2.13681 11.092
49 Ar 9.02865 6.76972 2.3478
50 Ar 8.90516 6.55372 6.66799
51 Ar 8.78918 6.4186 11.1583
52 Ar 9.02446 11.1191 2.20524
53 Ar 8.87081 11.1427 6.76683
54 Ar 8.9888 11.175 11.2678
55 Ar 2.22456 0.00451009 2.41772
56 Ar 2.37292 0.0140575 6.63063
57 Ar 2.20395 -0.15325 11.0179
58 Ar 2.30554 4.36126 2.35023
59 Ar 2.20073 4.57791 6.7808
60 Ar 2.26987 4.4929 11.3077
61 Ar 2.01149 8.90403 2.49139
62 Ar 2.14681 8.87299 6.70113
63 Ar 2.05151 8.99921 11.1176
64 Ar 6.6209 -0.0793143 2.07194
65 Ar 6.84081 0.0632506 6.77917
66 Ar 6.70513 -0.145086 11.0374
67 Ar 6.68238 4.31225 2.19776
68 Ar 6.78389 4.47677 6.59447
69 Ar 6.50607 4.23341 11.0761
70 Ar 6.84234 9.12224 2.11
71 Ar 6.63198 8.94314 6.34131
72 Ar 6.39609 8.68303 11.1306
73 Ar 11.1974 -0.0277623 2.21079
74 Ar 11.1396 -0.0213558 6.81135
75 Ar 11.3526 0.147204 10.7764
76 Ar 11.0177 4.33558 2.23398
77 Ar 11.2122 4.60172 6.62459
78 Ar 11.0992 4.35286 11.0605
79 Ar 11.0144 8.85001 2.39028
80 Ar 11.1581 8.91758 6.67806
81 Ar 10.965 8.87168 11.2159
82 Ar 2.21785 2.08852 -0.0434551
83 Ar 2.42577 2.33733 4.65738
84 Ar 2.24691 2.30883 8.85219
85 Ar 2.00375 6.58787 0.11089
86 Ar 2.22298 6.55304 4.6436
87 Ar 2.08324 6.88466 9.04967
88 Ar 2.06957 11.1501 -0.0300192
89 Ar 2.33147 11.2113 4.43151
90 Ar 2.06715 11.1432 8.79451
91 Ar 6.79223 2.11837 -0.00382299
92 Ar 6.77788 2.03418 4.39769
93 Ar 6.73805 2.29743 8.77787
94 Ar 6.63093 6.49818 0.275828
95 Ar 6.56419 6.79851 4.20024
96 Ar 6.64147 6.78925 8.63148
97 Ar 6.77046 10.9596 -0.201413
98 Ar 6.53139 11.2662 4.53418
99 Ar 6.70287 11.0465 8.95354
100 Ar 11.1809 2.25015 0.113596
101 Ar 11.0472 2.1245 4.40418
102 Ar 11.2573 2.35288 8.58735
103 Ar 11.1517 6.60597 0.18351
104 Ar 11.2404 6.42233 4.39222
105 Ar 11.1129 6.73989 8.99763
106 Ar 11.1644 11.1781 0.0579359
107 Ar 11.1457 11.1471 4.42653
108 Ar 11.0788 11.0317 8.97145
ITEM: TIMESTEP
94010
ITEM: NUMBER OF ATOMS
108
ITEM: BOX BOUNDS pp pp pp
0.0000000000000000e+00 1.3349999400000000e+01
0.0000000000000000e+00 1.3349999400000000e+01
0.0000000000000000e+00 1.3349999400000000e+01
ITEM: ATOMS id element xu yu zu
1 Ar -0.00388777 0.121695 -0.149022
2 Ar 0.0253435 0.157429 4.60054
3 Ar 0.204556 0.346529 8.65004
4 Ar 0.0422469 4.28439 0.0901413
5 Ar 0.0622132 4.2495 4.46072
6 Ar 0.0116361 4.40077 8.95647
7 Ar -0.0107453 8.89071 0.227584
8 Ar -0.0281248 8.91839 4.76777
9 Ar -0.123739 9.02562 8.85886
10 Ar 4.49176 -0.0467509 -0.182999
11 Ar 4.52446 0.0280227 4.52017
12 Ar 4.64441 -0.0123578 8.63272
13 Ar 4.43471 4.36316 0.01005
14 Ar 4.53911 4.45737 4.55377
15 Ar 4.42855 4.52395 8.87371
16 Ar 4.15739 9.00061 0.210729
17 Ar 4.44142 9.09915 4.21112
18 Ar 4.36097 8.85189 8.8835
19 Ar 8.92005 0.035537 -0.0746219
20 Ar 9.05531 -0.148608 4.57161
21 Ar 8.97731 0.0665674 8.77604
22 Ar 8.93802 4.45745 0.0642616
23 Ar 8.97444 4.52199 4.35196
24 Ar 8.78154 4.52045 8.81001
25 Ar 8.8415 8.81752 -0.132313
26 Ar 8.81691 9.09922 4.43065
27 Ar 8.7179 8.94285 8.95723
28 Ar 0.0984077 2.03833 2.27443
29 Ar 0.0522488 2.30403 6.64687
30 Ar -0.0163541 2.2819 11.1182
31 Ar 0.17377 6.4246 2.30788
32 Ar -0.0940192 6.6918 6.74837
33 Ar -0.0703214 6.66232 11.1259
34 Ar 0.157852 11.2232 2.19328
35 Ar -0.0529038 11.1667 6.61077
36 Ar -0.15842 11.0997 11.1481
37 Ar 4.55232 2.2021 2.26685
38 Ar 4.67215 2.12215 6.67629
39 Ar 4.45598 2.11772 11.0745
40 Ar 4.34293 6.82163 2.29277
41 Ar 4.55131 6.77231 6.36987
42 Ar 4.15476 6.65779 11.1781
43 Ar 4.4585 11.3099 2.21281
44 Ar 4.3657 11.1194 6.64929
45 Ar 4.52119 11.1972 11.0755
46 Ar 8.78193 2.25238 2.32074
47 Ar 8.97188 2.36762 6.73273
48 Ar 8.88631 2.14515 11.1143
49 Ar 9.01856 6.76792 2.36724
50 Ar 8.89975 6.55389 6.66742
51 Ar 8.77918 6.41535 11.1597
52 Ar 9.01724 11.1219 2.17831
53 Ar 8.86279 11.14 6.78186
54 Ar 8.97417 11.1676 11.2891
55 Ar 2.20529 -0.0185389 2.42439
56 Ar 2.34879 -0.0104821 6.63165
57 Ar 2.18693 -0.162805 11.0258
58 Ar 2.31071 4.35338 2.34234
59 Ar 2.20451 4.56963 6.79188
60 Ar 2.26309 4.46663 11.3081
61 Ar 2.01956 8.91354 2.49759
62 Ar 2.14641 8.86687 6.7155
63 Ar 2.04899 9.0011 11.1179
64 Ar 6.60962 -0.0918971 2.07503
65 Ar 6.83485 0.0662379 6.77634
66 Ar 6.69064 -0.148021 11.0282
67 Ar 6.6588 4.31818 2.20544
68 Ar 6.76411 4.49163 6.60933
69 Ar 6.50825 4.22499 11.0634
70 Ar 6.86333 9.11551 2.0933
71 Ar 6.63017 8.93757 6.33638
72 Ar 6.38873 8.68408 11.1596
73 Ar 11.1948 -0.0354656 2.20307
74 Ar 11.1542 -0.0210749 6.80931
75 Ar 11.3442 0.126333 10.745
76 Ar 11.0252 4.34652 2.23611
77 Ar 11.2252 4.63044 6.62011
78 Ar 11.0894 4.3521 11.0605
79 Ar 11.015 8.82926 2.39487
80 Ar 11.1359 8.92022 6.66473
81 Ar 10.9464 8.86622 11.2088
82 Ar 2.22074 2.09423 -0.0365653
83 Ar 2.42804 2.33159 4.6378
84 Ar 2.25795 2.31304 8.84247
85 Ar 1.99766 6.61163 0.122757
86 Ar 2.2447 6.56248 4.64683
87 Ar 2.07127 6.90139 9.04436
88 Ar 2.06472 11.1473 -0.0397749
89 Ar 2.34413 11.208 4.42655
90 Ar 2.06954 11.1449 8.78479
91 Ar 6.79849 2.12865 -0.015362
92 Ar 6.77455 2.05408 4.40038
93 Ar 6.75445 2.31721 8.77564
94 Ar 6.64556 6.4979 0.277502
95 Ar 6.57653 6.779 4.20572
96 Ar 6.62574 6.77701 8.63837
97 Ar 6.77358 10.9809 -0.197729
98 Ar 6.54358 11.2807 4.52835
99 Ar 6.72461 11.0423 8.95745
100 Ar 11.1765 2.25528 0.108745
101 Ar 11.0402 2.13766 4.40193
102 Ar 11.2621 2.3691 8.57625
103 Ar 11.1646 6.60845 0.177386
104 Ar 11.2604 6.42782 4.38438
105 Ar 11.105 6.73666 9.01126
106 Ar 11.1935 11.1652 0.0622741
107 Ar 11.1585 11.1337 4.42272
108 Ar 11.0783 11.0331 8.94924
ITEM: TIMESTEP
94020
ITEM: NUMBER OF ATOMS
108
ITEM: BOX BOUNDS pp pp pp
0.0000000000000000e+00 1.3349999400000000e+01
0.0000000000000000e+00 1.3349999400000000e+01
0.0000000000000000e+00 1.3349999400000000e+01
ITEM: ATOMS id element xu yu zu
1 Ar -0.00898094 0.111197 -0.151445
2 Ar 0.0419807 0.136687 4.60466
3 Ar 0.198846 0.324726 8.66335
4 Ar 0.0667426 4.28109 0.0705621
5 Ar 0.0619458 4.23772 4.44984
6 Ar 0.00864257 4.40492 8.95079
7 Ar 0.0130658 8.90009 0.238788
8 Ar -0.0268696 8.92309 4.75927
9 Ar -0.112807 9.01574 8.86938
10 Ar 4.4681 -0.0518693 -0.183724
11 Ar 4.53776 0.0201539 4.52118
12 Ar 4.6471 -0.0027025 8.64404
13 Ar 4.43011 4.35346 0.0136915
14 Ar 4.5626 4.45772 4.55175
15 Ar 4.44663 4.52851 8.86073
16 Ar 4.15623 9.00969 0.226919
17 Ar 4.43399 9.10054 4.21731
18 Ar 4.37438 8.85119 8.87073
19 Ar 8.9202 0.0322858 -0.0906528
20 Ar 9.05093 -0.135695 4.57209
21 Ar 8.97995 0.058581 8.80187
22 Ar 8.94986 4.45768 0.0610306
23 Ar 8.97734 4.51761 4.38222
24 Ar 8.80187 4.52503 8.82329
25 Ar 8.81906 8.82853 -0.130616
26 Ar 8.82439 9.10521 4.42638
27 Ar 8.71068 8.91737 8.95684
28 Ar 0.0995479 2.05129 2.28494
29 Ar 0.0547163 2.29833 6.64915
30 Ar -0.0119166 2.27761 11.1093
31 Ar 0.161713 6.41696 2.31078
32 Ar -0.096692 6.68898 6.76077
33 Ar -0.068381 6.65062 11.1132
34 Ar 0.142488 11.204 2.20442
35 Ar -0.0541628 11.1566 6.60871
36 Ar -0.178485 11.0975 11.1302
37 Ar 4.54153 2.21781 2.24549
38 Ar 4.6846 2.12013 6.66993
39 Ar 4.46417 2.12218 11.0643
40 Ar 4.33358 6.84912 2.29909
41 Ar 4.54902 6.78026 6.388
42 Ar 4.14143 6.68604 11.197
43 Ar 4.44483 11.3295 2.19487
44 Ar 4.36602 11.1375 6.65398
45 Ar 4.51179 11.1866 11.0608
46 Ar 8.77978 2.25069 2.33503
47 Ar 8.98886 2.3654 6.73649
48 Ar 8.87217 2.15455 11.1351
49 Ar 9.00559 6.76481 2.38486
50 Ar 8.89542 6.55866 6.66464
51 Ar 8.76842 6.41474 11.1608
52 Ar 9.00881 11.1269 2.15083
53 Ar 8.85557 11.1357 6.79576
54 Ar 8.96073 11.1606 11.3063
55 Ar 2.18818 -0.0391328 2.42818
56 Ar 2.3237 -0.0339734 6.63263
57 Ar 2.17026 -0.17026 11.0326
58 Ar 2.31691 4.34492 2.33323
59 Ar 2.20924 4.56102 6.80346
60 Ar 2.25447 4.43856 11.3057
61 Ar 2.02812 8.92195 2.50229
62 Ar 2.14837 8.86129 6.72924
63 Ar 2.04776 9.00347 11.1197
64 Ar 6.60128 -0.104293 2.07904
65 Ar 6.82942 0.06743 6.77059
66 Ar 6.67747 -0.147479 11.0186
67 Ar 6.6349 4.32552 2.21496
68 Ar 6.74232 4.50594 6.62235
69 Ar 6.5123 4.22051 11.0521
70 Ar 6.88075 9.10688 2.07802
71 Ar 6.62839 8.93204 6.33616
72 Ar 6.38327 8.68475 11.1893
73 Ar 11.1914 -0.0424352 2.19569
74 Ar 11.1692 -0.0213107 6.80513
75 Ar 11.3332 0.10514 10.7161
76 Ar 11.0358 4.35723 2.23808
77 Ar 11.2367 4.65587 6.61703
78 Ar 11.0793 4.35182 11.0614
79 Ar 11.02 8.80999 2.39807
80 Ar 11.1097 8.92181 6.65186
81 Ar 10.9305 8.8597 11.2013
82 Ar 2.22545 2.10018 -0.0287619
83 Ar 2.42925 2.3244 4.6171
84 Ar 2.27214 2.31757 8.83401
85 Ar 1.99512 6.63659 0.132978
86 Ar 2.26442 6.57349 4.64696
87 Ar 2.05989 6.91429 9.03636
88 Ar 2.06203 11.1456 -0.0491831
89 Ar 2.35377 11.2037 4.42359
90 Ar 2.07357 11.1468 8.77653
91 Ar 6.80248 2.13994 -0.0275561
92 Ar 6.77125 2.07523 4.40494
93 Ar 6.77008 2.33567 8.776
94 Ar 6.65963 6.50055 0.276037
95 Ar 6.59192 6.75846 4.21148
96 Ar 6.60901 6.76413 8.64817
97 Ar 6.77391 11.004 -0.191889
98 Ar 6.55897 11.2953 4.52077
99 Ar 6.74486 11.038 8.96014
100 Ar 11.1702 2.2589 0.102148
101 Ar 11.0341 2.15192 4.40105
102 Ar 11.2638 2.38527 8.56992
103 Ar 11.178 6.61136 0.169205
104 Ar 11.2808 6.4382 4.37661
105 Ar 11.0957 6.73301 9.02381
106 Ar 11.2223 11.1516 0.0661997
107 Ar 11.1727 11.1204 4.41924
108 Ar 11.077 11.0358 8.9264
ITEM: TIMESTEP
94030
ITEM: NUMBER OF ATOMS
108
ITEM: BOX BOUNDS pp pp pp
0.0000000000000000e+00 1.3349999400000000e+01
0.0000000000000000e+00 1.3349999400000000e+01
0.0000000000000000e+00 1.3349999400000000e+01
ITEM: ATOMS id element xu yu zu
1 Ar -0.014845 0.0989309 -0.152543
2 Ar 0.0578582 0.114102 4.60776
3 Ar 0.191503 0.297535 8.67991
4 Ar 0.0898111 4.27893 0.0511614
5 Ar 0.0614717 4.22737 4.43855
6 Ar 0.0068774 4.41161 8.94534
7 Ar 0.0347518 8.9085 0.247924
8 Ar -0.0254024 8.92637 4.74507
9 Ar -0.102135 9.0045 8.88063
10 Ar 4.4438 -0.0564862 -0.182089
11 Ar 4.55013 0.0135311 4.5212
12 Ar 4.64665 0.00614536 8.66052
13 Ar 4.42578 4.34463 0.0179283
14 Ar 4.58581 4.45699 4.54813
15 Ar 4.46411 4.53385 8.84748
16 Ar 4.15709 9.01793 0.240857
17 Ar 4.42751 9.10062 4.2255
18 Ar 4.38838 8.8518 8.85746
19 Ar 8.92215 0.0287521 -0.104925
20 Ar 9.04458 -0.121659 4.57091
21 Ar 8.98179 0.0505672 8.83062
22 Ar 8.96065 4.45692 0.0575341
23 Ar 8.97757 4.51198 4.41408
24 Ar 8.82434 4.52906 8.83872
25 Ar 8.79804 8.83747 -0.12762
26 Ar 8.83318 9.10951 4.4234
27 Ar 8.70563 8.88982 8.9566
28 Ar 0.0999348 2.06644 2.2951
29 Ar 0.0580507 2.29423 6.64893
30 Ar -0.0063164 2.27338 11.0998
31 Ar 0.146754 6.41162 2.31551
32 Ar -0.0972653 6.6863 6.77356
33 Ar -0.0670224 6.63926 11.1026
34 Ar 0.123715 11.185 2.21786
35 Ar -0.0546224 11.1481 6.60817
36 Ar -0.197448 11.0954 11.112
37 Ar 4.52919 2.23148 2.22358
38 Ar 4.69435 2.12204 6.66317
39 Ar 4.47114 2.12589 11.0531
40 Ar 4.32373 6.8735 2.30385
41 Ar 4.5457 6.78858 6.4102
42 Ar 4.13122 6.71442 11.217
43 Ar 4.43051 11.3468 2.17522
44 Ar 4.36829 11.1533 6.65994
45 Ar 4.49965 11.1733 11.0453
46 Ar 8.7801 2.24621 2.3469
47 Ar 9.00534 2.36237 6.73693
48 Ar 8.85974 2.16487 11.154
49 Ar 8.99021 6.7602 2.40038
50 Ar 8.89207 6.56788 6.65987
51 Ar 8.75693 6.41684 11.1618
52 Ar 8.99961 11.1339 2.12326
53 Ar 8.84923 11.1302 6.80815
54 Ar 8.94895 11.1538 11.3191
55 Ar 2.1732 -0.0568615 2.42887
56 Ar 2.29826 -0.0558261 6.63351
57 Ar 2.15416 -0.175493 11.0385
58 Ar 2.32399 4.33643 2.32309
59 Ar 2.21488 4.55232 6.81497
60 Ar 2.24469 4.40957 11.3002
61 Ar 2.03693 8.92913 2.50547
62 Ar 2.15252 8.85647 6.74196
63 Ar 2.04777 9.00641 11.123
64 Ar 6.59604 -0.11577 2.08372
65 Ar 6.82489 0.0669083 6.76236
66 Ar 6.66563 -0.143474 11.0089
67 Ar 6.61135 4.33417 2.22595
68 Ar 6.71925 4.51945 6.63366
69 Ar 6.51804 4.22035 11.0425
70 Ar 6.89405 9.09647 2.06468
71 Ar 6.62671 8.92678 6.34036
72 Ar 6.37967 8.68512 11.2195
73 Ar 11.1874 -0.0484333 2.18884
74 Ar 11.1843 -0.0219651 6.79889
75 Ar 11.3198 0.0842316 10.6904
76 Ar 11.0491 4.36753 2.23979
77 Ar 11.2463 4.67758 6.6154
78 Ar 11.0692 4.35193 11.0632
79 Ar 11.0292 8.79247 2.39962
80 Ar 11.08 8.92212 6.6397
81 Ar 10.9173 8.85226 11.1936
82 Ar 2.23176 2.10591 -0.0201346
83 Ar 2.42965 2.31576 4.59576
84 Ar 2.28904 2.32196 8.82682
85 Ar 1.99615 6.66222 0.141368
86 Ar 2.28175 6.58566 4.64413
87 Ar 2.04964 6.92298 9.02601
88 Ar 2.06125 11.1452 -0.0580475
89 Ar 2.36034 11.1985 4.42283
90 Ar 2.07921 11.1487 8.76998
91 Ar 6.80404 2.15192 -0.0398331
92 Ar 6.76789 2.09741 4.41126
93 Ar 6.78491 2.35235 8.77866
94 Ar 6.6728 6.50577 0.271582
95 Ar 6.60983 6.73739 4.21765
96 Ar 6.59166 6.75085 8.66105
97 Ar 6.77097 11.0288 -0.183888
98 Ar 6.57731 11.3093 4.51153
99 Ar 6.76328 11.0338 8.96176
100 Ar 11.1624 2.26101 0.0939927
101 Ar 11.0292 2.16685 4.40154
102 Ar 11.2625 2.40108 8.56847
103 Ar 11.1917 6.61478 0.15907
104 Ar 11.301 6.45322 4.36913
105 Ar 11.0853 6.72907 9.03501
106 Ar 11.2504 11.1374 0.0696158
107 Ar 11.1877 11.1076 4.41593
108 Ar 11.0749 11.0393 8.90313
ITEM: TIMESTEP
94040
ITEM: NUMBER OF ATOMS
108
ITEM: BOX BOUNDS pp pp pp
0.0000000000000000e+00 1.3349999400000000e+01
0.0000000000000000e+00 1.3349999400000000e+01
0.0000000000000000e+00 1.3349999400000000e+01
ITEM: ATOMS id element xu yu zu
1 Ar -0.0214563 0.0853378 -0.152275
2 Ar 0.0724769 0.0901589 4.60958
3 Ar 0.182834 0.265851 8.69925
4 Ar 0.111001 4.27798 0.0322862
5 Ar 0.0610049 4.21872 4.42727
6 Ar 0.00640163 4.42062 8.94021
7 Ar 0.0539726 8.91574 0.254775
8 Ar -0.0236101 8.928 4.72582
9 Ar -0.0923302 8.99225 8.89229
10 Ar 4.41922 -0.0604261 -0.178481
11 Ar 4.5612 0.00844034 4.52014
12 Ar 4.6431 0.0142228 8.68162
13 Ar 4.42183 4.33716 0.0222871
14 Ar 4.60796 4.45531 4.54308
15 Ar 4.48056 4.53994 8.83439
16 Ar 4.16005 9.02544 0.252333
17 Ar 4.42251 9.09971 4.23571
18 Ar 4.4029 8.85376 8.84402
19 Ar 8.92588 0.0251196 -0.117253
20 Ar 9.03667 -0.106901 4.56816
21 Ar 8.98257 0.0427513 8.86144
22 Ar 8.97023 4.45531 0.0541354
23 Ar 8.9754 4.50528 4.44697
24 Ar 8.84856 4.53255 8.85562
25 Ar 8.77916 8.84411 -0.123567
26 Ar 8.84296 9.1123 4.42159
27 Ar 8.70264 8.86046 8.95658
28 Ar 0.0994482 2.08323 2.3046
29 Ar 0.062284 2.29143 6.64644
30 Ar 7.08511e-05 2.26894 11.0896
31 Ar 0.1296 6.40858 2.32172
32 Ar -0.095563 6.68425 6.78637
33 Ar -0.0661396 6.62835 11.0946
34 Ar 0.101987 11.1663 2.23347
35 Ar -0.0543098 11.1409 6.60925
36 Ar -0.214994 11.093 11.0934
37 Ar 4.51565 2.24245 2.20152
38 Ar 4.70111 2.12761 6.65619
39 Ar 4.47676 2.12878 11.0413
40 Ar 4.31389 6.8943 2.30705
41 Ar 4.54136 6.79704 6.43592
42 Ar 4.12376 6.7422 11.2377
43 Ar 4.41573 11.3614 2.1544
44 Ar 4.37273 11.1666 6.66705
45 Ar 4.48504 11.1575 11.0291
46 Ar 8.78267 2.23929 2.35607
47 Ar 9.02089 2.35858 6.7343
48 Ar 8.84933 2.17593 11.1707
49 Ar 8.97302 6.75394 2.41356
50 Ar 8.8895 6.58128 6.65343
51 Ar 8.74474 6.42171 11.1627
52 Ar 8.9901 11.1429 2.09602
53 Ar 8.8438 11.1237 6.81869
54 Ar 8.93911 11.1472 11.3271
55 Ar 2.16026 -0.0714347 2.42632
56 Ar 2.27309 -0.0755076 6.63429
57 Ar 2.13885 -0.178415 11.0431
58 Ar 2.33173 4.32847 2.31214
59 Ar 2.22137 4.54379 6.82579
60 Ar 2.23449 4.38052 11.2916
61 Ar 2.0458 8.93504 2.50712
62 Ar 2.15863 8.85263 6.75321
63 Ar 2.04893 9.00995 11.1274
64 Ar 6.59398 -0.125631 2.08882
65 Ar 6.82151 0.064804 6.75219
66 Ar 6.65508 -0.136146 10.9992
67 Ar 6.58877 4.34401 2.23798
68 Ar 6.69573 4.53199 6.6434
69 Ar 6.52524 4.22475 11.0348
70 Ar 6.90273 9.08447 2.05383
71 Ar 6.62525 8.92198 6.34863
72 Ar 6.37787 8.68534 11.2497
73 Ar 11.1829 -0.0532432 2.1827
74 Ar 11.1988 -0.0228883 6.79074
75 Ar 11.3043 0.0641879 10.6685
76 Ar 11.0646 4.37729 2.24118
77 Ar 11.2539 4.69523 6.61516
78 Ar 11.0595 4.35238 11.066
79 Ar 11.0422 8.77692 2.39929
80 Ar 11.0479 8.92099 6.62842
81 Ar 10.9068 8.84409 11.1859
82 Ar 2.23934 2.11099 -0.0108086
83 Ar 2.42945 2.30572 4.57419
84 Ar 2.30809 2.32569 8.82088
85 Ar 2.00063 6.68795 0.147867
86 Ar 2.29643 6.59853 4.63855
87 Ar 2.04109 6.92722 9.01374
88 Ar 2.06211 11.146 -0.0661562
89 Ar 2.36386 11.1923 4.42437
90 Ar 2.08641 11.1504 8.76537
91 Ar 6.80306 2.16427 -0.0516282
92 Ar 6.76445 2.12035 4.41917
93 Ar 6.79891 2.36684 8.78322
94 Ar 6.68477 6.51314 0.264339
95 Ar 6.62963 6.71629 4.22443
96 Ar 6.57418 6.73741 8.6771
97 Ar 6.76442 11.0552 -0.173828
98 Ar 6.59834 11.322 4.50078
99 Ar 6.77958 11.0295 8.96249
100 Ar 11.1534 2.26161 0.0844722
101 Ar 11.026 2.18206 4.40335
102 Ar 11.2585 2.41617 8.57187
103 Ar 11.2055 6.61875 0.147106
104 Ar 11.3207 6.47251 4.36222
105 Ar 11.0739 6.72496 9.04464
106 Ar 11.2772 11.1226 0.0724249
107 Ar 11.2028 11.0957 4.41271
108 Ar 11.072 11.0429 8.87964
ITEM: TIMESTEP
94050
ITEM: NUMBER OF ATOMS
108
ITEM: BOX BOUNDS pp pp pp
0.0000000000000000e+00 1.3349999400000000e+01
0.0000000000000000e+00 1.3349999400000000e+01
0.0000000000000000e+00 1.3349999400000000e+01
ITEM: ATOMS id element xu yu zu
1 Ar -0.0287652 0.0708712 -0.150634
2 Ar 0.0853883 0.0653552 4.60987
3 Ar 0.173127 0.230631 8.72082
4 Ar 0.129911 4.27832 0.0142802
5 Ar 0.0607464 4.21204 4.41641
6 Ar 0.00722398 4.43165 8.93549
7 Ar 0.0704679 8.92165 0.259168
8 Ar -0.0214013 8.92781 4.70231
9 Ar -0.0839218 8.97931 8.90405
10 Ar 4.39474 -0.0635274 -0.173349
11 Ar 4.57064 0.00505205 4.51799
12 Ar 4.63658 0.0215824 8.70665
13 Ar 4.41839 4.33151 0.0262665
14 Ar 4.62823 4.45289 4.53677
15 Ar 4.49553 4.54664 8.82192
16 Ar 4.16513 9.03234 0.261171
17 Ar 4.41946 9.09809 4.24792
18 Ar 4.41785 8.85707 8.83076
19 Ar 8.93134 0.0215774 -0.127551
20 Ar 9.02763 -0.0917774 4.56395
21 Ar 8.98198 0.035334 8.89341
22 Ar 8.97845 4.45303 0.051178
23 Ar 8.97118 4.49771 4.48026
24 Ar 8.87406 4.5355 8.8733
25 Ar 8.76304 8.84837 -0.118708
26 Ar 8.85338 9.11374 4.42073
27 Ar 8.70156 8.82968 8.9568
28 Ar 0.097984 2.10108 2.31312
29 Ar 0.0673794 2.2896 6.64208
30 Ar 0.00686587 2.26402 11.0789
31 Ar 0.111067 6.4078 2.32893
32 Ar -0.0915055 6.68329 6.79881
33 Ar -0.0655959 6.61802 11.0892
34 Ar 0.0778626 11.148 2.25105
35 Ar -0.0532756 11.1346 6.61201
36 Ar -0.230836 11.0905 11.0747
37 Ar 4.50136 2.25013 2.17976
38 Ar 4.70466 2.13645 6.64921
39 Ar 4.48101 2.13085 11.0291
40 Ar 4.30457 6.91114 2.30871
41 Ar 4.53594 6.80534 6.4645
42 Ar 4.11871 6.76867 11.2589
43 Ar 4.40066 11.373 2.13302
44 Ar 4.3795 11.1774 6.67515
45 Ar 4.46832 11.1397 11.0126
46 Ar 8.78724 2.23031 2.36234
47 Ar 9.03514 2.35402 6.72893
48 Ar 8.84119 2.18757 11.1847
49 Ar 8.95473 6.74597 2.42419
50 Ar 8.88751 6.59844 6.64562
51 Ar 8.73198 6.42935 11.1639
52 Ar 8.98065 11.1534 2.06953
53 Ar 8.83931 11.1166 6.82705
54 Ar 8.9314 11.1407 11.3302
55 Ar 2.14916 -0.0826916 2.42045
56 Ar 2.2488 -0.0925579 6.63499
57 Ar 2.12454 -0.178974 11.0465
58 Ar 2.33985 4.32162 2.30062
59 Ar 2.22864 4.53568 6.8353
60 Ar 2.22456 4.35221 11.2799
61 Ar 2.05457 8.93971 2.50718
62 Ar 2.16639 8.84997 6.76261
63 Ar 2.05111 9.01406 11.1329
64 Ar 6.59506 -0.133244 2.09414
65 Ar 6.81935 0.0612952 6.74071
66 Ar 6.64579 -0.125743 10.9899
67 Ar 6.56774 4.35489 2.2505
68 Ar 6.6726 4.54347 6.65179
69 Ar 6.53361 4.23387 11.0292
70 Ar 6.90646 9.07112 2.04592
71 Ar 6.62412 8.91782 6.36058
72 Ar 6.37783 8.68563 11.2794
73 Ar 11.178 -0.0566787 2.17742
74 Ar 11.2125 -0.0238924 6.78084
75 Ar 11.287 0.0455314 10.6509
76 Ar 11.0818 4.38638 2.2422
77 Ar 11.2593 4.70867 6.6162
78 Ar 11.0504 4.35312 11.0699
79 Ar 11.0584 8.76349 2.39687
80 Ar 11.0141 8.91828 6.6182
81 Ar 10.899 8.83541 11.1785
82 Ar 2.24784 2.11505 -0.000951201
83 Ar 2.42885 2.29435 4.55278
84 Ar 2.3287 2.32828 8.81612
85 Ar 2.00833 6.71319 0.152517
86 Ar 2.3083 6.61165 4.63051
87 Ar 2.03479 6.92686 9.0001
88 Ar 2.0643 11.1481 -0.0732991
89 Ar 2.36445 11.1851 4.42823
90 Ar 2.09512 11.1518 8.7629
91 Ar 6.79945 2.1767 -0.0624179
92 Ar 6.76094 2.14376 4.42842
93 Ar 6.81209 2.37877 8.78925
94 Ar 6.69524 6.52219 0.254556
95 Ar 6.65061 6.69572 4.23208
96 Ar 6.55708 6.72401 8.69641
97 Ar 6.75406 11.0829 -0.161928
98 Ar 6.62171 11.3327 4.48866
99 Ar 6.79352 11.0253 8.96254
100 Ar 11.1436 2.26073 0.0737853
101 Ar 11.0246 2.19718 4.40641
102 Ar 11.2521 2.43018 8.58001
103 Ar 11.2191 6.62325 0.133458
104 Ar 11.3392 6.49553 4.3563
105 Ar 11.0617 6.72077 9.0525
106 Ar 11.3022 11.107 0.0745312
107 Ar 11.2173 11.0852 4.40951
108 Ar 11.0683 11.0461 8.85609
ITEM: TIMESTEP
94060
ITEM: NUMBER OF ATOMS
108
ITEM: BOX BOUNDS pp pp pp
0.0000000000000000e+00 1.3349999400000000e+01
0.0000000000000000e+00 1.3349999400000000e+01
0.0000000000000000e+00 1.3349999400000000e+01
ITEM: ATOMS id element xu yu zu
1 Ar -0.0367012 0.0559747 -0.147638
2 Ar 0.0962061 0.0401836 4.60838
3 Ar 0.162621 0.192827 8.744
4 Ar 0.146207 4.28002 -0.00253529
5 Ar 0.0608851 4.20763 4.4064
6 Ar 0.00929981 4.4443 8.93125
7 Ar 0.0840646 8.92614 0.260972
8 Ar -0.0186995 8.92574 4.67544
9 Ar -0.0773297 8.96599 8.91563
10 Ar 4.37074 -0.0656419 -0.167182
11 Ar 4.57821 0.00341571 4.51472
12 Ar 4.62725 0.0282668 8.73474
13 Ar 4.41554 4.3281 0.0293675
14 Ar 4.64578 4.44997 4.52944
15 Ar 4.50859 4.55377 8.81052
16 Ar 4.17237 9.03873 0.267233
17 Ar 4.41873 9.09601 4.2621
18 Ar 4.4331 8.86169 8.81804
19 Ar 8.93843 0.0183061 -0.135831
20 Ar 9.01792 -0.0765892 4.55838
21 Ar 8.97967 0.0284856 8.92556
22 Ar 8.98518 4.45028 0.0489758
23 Ar 8.96529 4.4895 4.51333
24 Ar 8.90031 4.53792 8.89102
25 Ar 8.75024 8.8503 -0.113267
26 Ar 8.86411 9.11397 4.42053
27 Ar 8.70217 8.79788 8.95733
28 Ar 0.0954592 2.11941 2.32035
29 Ar 0.0732387 2.28838 6.63636
30 Ar 0.0136981 2.25839 11.0677
31 Ar 0.0920417 6.40922 2.33658
32 Ar -0.0851271 6.68378 6.81049
33 Ar -0.065229 6.60839 11.0866
34 Ar 0.0519933 11.1305 2.27033
35 Ar -0.0515914 11.1285 6.61647
36 Ar -0.244732 11.0876 11.056
37 Ar 4.48681 2.25401 2.1587
38 Ar 4.70487 2.1481 6.64251
39 Ar 4.4839 2.13224 11.0169
40 Ar 4.29629 6.92369 2.3089
41 Ar 4.52941 6.81321 6.4952
42 Ar 4.11577 6.79323 11.2801
43 Ar 4.38553 11.3811 2.11174
44 Ar 4.38868 11.1858 6.68408
45 Ar 4.44989 11.1203 10.996
46 Ar 8.79354 2.21969 2.36557
47 Ar 9.04774 2.34868 6.72126
48 Ar 8.8355 2.19962 11.1959
49 Ar 8.93612 6.73627 2.43208
50 Ar 8.88586 6.61886 6.6368
51 Ar 8.7188 6.4397 11.1653
52 Ar 8.97158 11.1651 2.04419
53 Ar 8.83575 11.1091 6.83299
54 Ar 8.92583 11.1341 11.3286
55 Ar 2.13968 -0.0906013 2.41129
56 Ar 2.22594 -0.1066 6.63573
57 Ar 2.11144 -0.177154 11.0487
58 Ar 2.34805 4.31642 2.28875
59 Ar 2.23664 4.52819 6.84295
60 Ar 2.21558 4.32535 11.265
61 Ar 2.06314 8.94327 2.50561
62 Ar 2.17547 8.84872 6.76979
63 Ar 2.05414 9.01863 11.1392
64 Ar 6.59916 -0.138062 2.09952
65 Ar 6.81836 0.0566011 6.72855
66 Ar 6.63768 -0.11261 10.9814
67 Ar 6.54879 4.36664 2.26292
68 Ar 6.65067 4.55383 6.65901
69 Ar 6.54282 4.24773 11.026
70 Ar 6.90501 9.05671 2.04137
71 Ar 6.62345 8.91444 6.37578
72 Ar 6.37949 8.68625 11.3083
73 Ar 11.1727 -0.0585918 2.17311
74 Ar 11.2248 -0.0247677 6.76937
75 Ar 11.2682 0.0287046 10.6383
76 Ar 11.1001 4.39471 2.24281
77 Ar 11.2623 4.71784 6.61832
78 Ar 11.0424 4.35416 11.0749
79 Ar 11.0774 8.75231 2.39215
80 Ar 10.9796 8.91394 6.60914
81 Ar 10.8939 8.82644 11.1714
82 Ar 2.25684 2.1178 0.00922191
83 Ar 2.428 2.28176 4.53187
84 Ar 2.35022 2.3293 8.81244
85 Ar 2.01895 6.73737 0.155446
86 Ar 2.3173 6.62461 4.62035
87 Ar 2.03127 6.92185 8.98566
88 Ar 2.06747 11.1514 -0.0792854
89 Ar 2.36229 11.1772 4.43435
90 Ar 2.10525 11.1525 8.76269
91 Ar 6.79318 2.18893 -0.0717507
92 Ar 6.75743 2.16736 4.43873
93 Ar 6.82443 2.38791 8.79632
94 Ar 6.70394 6.5324 0.242524
95 Ar 6.67207 6.67621 4.2409
96 Ar 6.54087 6.7109 8.71901
97 Ar 6.73992 11.1116 -0.148526
98 Ar 6.64703 11.3409 4.47534
99 Ar 6.80495 11.0211 8.96216
100 Ar 11.1334 2.2584 0.0621321
101 Ar 11.0254 2.21188 4.41062
102 Ar 11.2437 2.44276 8.59267
103 Ar 11.2324 6.62823 0.118297
104 Ar 11.3562 6.52166 4.35183
105 Ar 11.0491 6.71659 9.05843
106 Ar 11.3248 11.0909 0.0758416
107 Ar 11.2307 11.0763 4.40639
108 Ar 11.064 11.0486 8.83267
ITEM: TIMESTEP
94070
ITEM: NUMBER OF ATOMS
108
ITEM: BOX BOUNDS pp pp pp
0.0000000000000000e+00 1.3349999400000000e+01
0.0000000000000000e+00 1.3349999400000000e+01
0.0000000000000000e+00 1.3349999400000000e+01
ITEM: ATOMS id element xu yu zu
1 Ar -0.0451779 0.0410636 -0.143341
2 Ar 0.104617 0.0151233 4.60487
3 Ar 0.151497 0.153331 8.76814
4 Ar 0.159641 4.28311 -0.0178822
5 Ar 0.0615984 4.20577 4.39764
6 Ar 0.0125322 4.45816 8.92751
7 Ar 0.0946817 8.92915 0.260104
8 Ar -0.0154383 8.9218 4.64615
9 Ar -0.0728447 8.95259 8.92678
10 Ar 4.3476 -0.0666372 -0.160485
11 Ar 4.58378 0.00346409 4.51034
12 Ar 4.61533 0.0342859 8.76498
13 Ar 4.41338 4.32726 0.0311274
14 Ar 4.65983 4.44681 4.52131
15 Ar 4.51934 4.56106 8.80065
16 Ar 4.18174 9.04468 0.270427
17 Ar 4.42059 9.09367 4.27812
18 Ar 4.44852 8.86758 8.80627
19 Ar 8.947 0.0154643 -0.142201
20 Ar 9.00796 -0.0615824 4.55156
21 Ar 8.97531 0.0223413 8.95693
22 Ar 8.99032 4.4473 0.0478031
23 Ar 8.95808 4.48087 4.54554
24 Ar 8.92669 4.5398 8.90809
25 Ar 8.74123 8.85009 -0.107401
26 Ar 8.87481 9.11311 4.42059
27 Ar 8.70418 8.76559 8.95819
28 Ar 0.0918163 2.13764 2.32597
29 Ar 0.0797155 2.28743 6.62981
30 Ar 0.0202181 2.25186 11.0562
31 Ar 0.0734386 6.41279 2.34401
32 Ar -0.0765819 6.68598 6.821
33 Ar -0.0648566 6.5996 11.0867
34 Ar 0.0250981 11.1139 2.29097
35 Ar -0.0493452 11.1222 6.62256
36 Ar -0.256489 11.0844 11.0375
37 Ar 4.47254 2.25374 2.13877
38 Ar 4.70174 2.16199 6.6364
39 Ar 4.48556 2.13314 11.0049
40 Ar 4.28955 6.93175 2.30772
41 Ar 4.52168 6.82033 6.52725
42 Ar 4.11473 6.81535 11.3011
43 Ar 4.37059 11.3857 2.09126
44 Ar 4.40029 11.192 6.69362
45 Ar 4.43023 11.0996 10.9796
46 Ar 8.80127 2.20786 2.36575
47 Ar 9.05842 2.34249 6.71179
48 Ar 8.83236 2.21189 11.2041
49 Ar 8.91802 6.72487 2.43704
50 Ar 8.88432 6.64189 6.62729
51 Ar 8.70542 6.45266 11.1671
52 Ar 8.96318 11.1775 2.02036
53 Ar 8.83308 11.1017 6.83633
54 Ar 8.92228 11.1274 11.3224
55 Ar 2.13155 -0.095255 2.39893
56 Ar 2.20504 -0.117347 6.63664
57 Ar 2.09974 -0.172978 11.0497
58 Ar 2.35599 4.31337 2.2768
59 Ar 2.24525 4.5215 6.84821
60 Ar 2.20816 4.30056 11.247
61 Ar 2.07143 8.94588 2.50232
62 Ar 2.18552 8.84903 6.77448
63 Ar 2.05785 9.02351 11.146
64 Ar 6.60604 -0.139635 2.10483
65 Ar 6.81841 0.0509715 6.71634
66 Ar 6.63069 -0.097158 10.9739
67 Ar 6.53239 4.37905 2.27462
68 Ar 6.6307 4.56309 6.66529
69 Ar 6.55252 4.2662 11.0251
70 Ar 6.89835 9.04158 2.04046
71 Ar 6.62336 8.91193 6.39379
72 Ar 6.38278 8.68752 11.3359
73 Ar 11.1673 -0.0588785 2.16989
74 Ar 11.2356 -0.0253012 6.75655
75 Ar 11.2484 0.0140502 10.6312
76 Ar 11.119 4.4022 2.24297
77 Ar 11.263 4.72287 6.62132
78 Ar 11.0358 4.35553 11.0811
79 Ar 11.0984 8.74344 2.38495
80 Ar 10.9456 8.90796 6.60136
81 Ar 10.8914 8.81743 11.165
82 Ar 2.26586 2.11905 0.019444
83 Ar 2.427 2.26809 4.51174
84 Ar 2.37202 2.32838 8.80971
85 Ar 2.0321 6.75996 0.156833
86 Ar 2.32345 6.63703 4.60847
87 Ar 2.031 6.9123 8.97106
88 Ar 2.0713 11.1558 -0.0839585
89 Ar 2.35762 11.1685 4.44256
90 Ar 2.11669 11.1525 8.7648
91 Ar 6.7843 2.20072 -0.0792739
92 Ar 6.75401 2.19081 4.44977
93 Ar 6.83594 2.39411 8.80401
94 Ar 6.71064 6.54322 0.228573
95 Ar 6.69324 6.65828 4.25125
96 Ar 6.52607 6.69828 8.74485
97 Ar 6.72216 11.1411 -0.134062
98 Ar 6.67383 11.3462 4.46101
99 Ar 6.81376 11.0169 8.96158
100 Ar 11.1233 2.25469 0.0497121
101 Ar 11.0285 2.22587 4.41585
102 Ar 11.2338 2.45355 8.60952
103 Ar 11.2449 6.63362 0.10182
104 Ar 11.3709 6.55017 4.34935
105 Ar 11.0363 6.71249 9.0623
106 Ar 11.3446 11.0741 0.076268
107 Ar 11.2423 11.0694 4.40344
108 Ar 11.0592 11.0499 8.80958
ITEM: TIMESTEP
94080
ITEM: NUMBER OF ATOMS
108
ITEM: BOX BOUNDS pp pp pp
0.0000000000000000e+00 1.3349999400000000e+01
0.0000000000000000e+00 1.3349999400000000e+01
0.0000000000000000e+00 1.3349999400000000e+01
ITEM: ATOMS id element xu yu zu
1 Ar -0.054098 0.0265097 -0.137822
2 Ar 0.110391 -0.00937052 4.59914
3 Ar 0.139871 0.112948 8.79258
4 Ar 0.170069 4.28759 -0.031545
5 Ar 0.0630526 4.20675 4.39054
6 Ar 0.016775 4.47275 8.92427
7 Ar 0.102332 8.93066 0.25653
8 Ar -0.0115585 8.91609 4.61542
9 Ar -0.0706175 8.93928 8.93729
10 Ar 4.32569 -0.0664034 -0.153756
11 Ar 4.58729 0.00502645 4.50487
12 Ar 4.60105 0.0395996 8.79638
13 Ar 4.41192 4.32926 0.0311524
14 Ar 4.66964 4.44371 4.51264
15 Ar 4.5274 4.5682 8.79278
16 Ar 4.19318 9.05026 0.270712
17 Ar 4.42517 9.09117 4.29583
18 Ar 4.46396 8.87465 8.79583
19 Ar 8.95688 0.0131767 -0.146857
20 Ar 8.99815 -0.0469477 4.54362
21 Ar 8.96857 0.0169983 8.98657
22 Ar 8.9938 4.44431 0.0478866
23 Ar 8.94995 4.47207 4.57631
24 Ar 8.95256 4.54116 8.92389
25 Ar 8.73631 8.84802 -0.10117
26 Ar 8.88514 9.11126 4.42048
27 Ar 8.70732 8.73338 8.95942
28 Ar 0.0870284 2.15526 2.32971
29 Ar 0.086633 2.28645 6.62298
30 Ar 0.0261099 2.24429 11.0444
31 Ar 0.0561425 6.41846 2.35057
32 Ar -0.0661358 6.69003 6.82991
33 Ar -0.0642803 6.59175 11.0895
34 Ar -0.00205946 11.0984 2.31252
35 Ar -0.0466366 11.1151 6.63018
36 Ar -0.26597 11.0809 11.0194
37 Ar 4.45909 2.2491 2.12038
38 Ar 4.69532 2.17753 6.63118
39 Ar 4.48613 2.13386 10.9937