ITEM: TIMESTEP
16000
ITEM: NUMBER OF ATOMS
108
ITEM: BOX BOUNDS pp pp pp
0.0000000000000000e+00 1.3349999400000000e+01
0.0000000000000000e+00 1.3349999400000000e+01
0.0000000000000000e+00 1.3349999400000000e+01
ITEM: ATOMS id element xu yu zu
1 Ar 0.0691389 -0.0261753 0.0289996
2 Ar -0.0678509 -0.163853 4.45982
3 Ar 0.280883 0.133363 8.80753
4 Ar 0.0461187 4.35203 0.0223439
5 Ar -0.0293722 4.60475 4.17971
6 Ar 0.045965 4.30517 8.86321
7 Ar -0.0782468 8.99522 0.0382177
8 Ar 0.0672446 8.6708 4.50874
9 Ar -0.157845 8.89265 8.83735
10 Ar 4.24975 -0.00915859 -0.000879602
11 Ar 4.44506 -0.054467 4.42883
12 Ar 4.40107 -0.113171 8.82192
13 Ar 4.47934 4.47915 -0.0716685
14 Ar 4.38577 4.49615 4.63029
15 Ar 4.64722 4.47623 8.9063
16 Ar 4.5867 8.86722 -0.0565171
17 Ar 4.31545 8.89564 4.47065
18 Ar 4.29724 8.88815 8.91039
19 Ar 8.80238 0.17391 -0.196307
20 Ar 8.97146 -0.0757417 4.46532
21 Ar 8.82251 0.133034 9.14322
22 Ar 8.81807 4.43348 0.175962
23 Ar 9.0315 4.38663 4.40868
24 Ar 8.91086 4.49679 8.86589
25 Ar 8.96194 8.91667 -0.140133
26 Ar 8.84228 8.9608 4.47059
27 Ar 9.10004 8.97197 8.79171
28 Ar 0.0236128 2.10513 2.20457
29 Ar 0.0216101 2.22233 6.45791
30 Ar 0.056344 2.17962 11.3144
31 Ar -0.079616 6.65741 2.11225
32 Ar 0.0222211 6.54455 6.63864
33 Ar -0.153378 6.78227 10.9705
34 Ar 0.271794 11.0039 2.36404
35 Ar -0.0520698 11.0824 6.5118
36 Ar 0.0577398 11.2374 11.1843
37 Ar 4.30589 2.38174 2.37178
38 Ar 4.62358 2.18707 6.69649
39 Ar 4.5755 2.36379 10.9529
40 Ar 4.4485 6.76014 2.30637
41 Ar 4.42674 6.53796 6.54621
42 Ar 4.44202 6.65031 11.2399
43 Ar 4.34225 11.2084 2.20823
44 Ar 4.43776 11.0348 6.80532
45 Ar 4.26625 11.0461 11.1415
46 Ar 8.81329 2.09045 2.28489
47 Ar 9.05659 2.22021 6.72421
48 Ar 8.86587 2.3409 11.041
49 Ar 8.70939 6.80616 2.22332
50 Ar 8.80263 6.80325 6.61942
51 Ar 8.82617 6.7485 11.1231
52 Ar 8.92209 11.3345 2.20794
53 Ar 9.05758 11.2423 6.7966
54 Ar 8.96313 11.0925 11.0579
55 Ar 2.20138 -0.0531431 2.44865
56 Ar 2.24995 0.107654 6.48091
57 Ar 2.35105 0.130367 11.2163
58 Ar 2.42161 4.70573 2.11739
59 Ar 2.22392 4.38134 6.86921
60 Ar 2.24004 4.38386 11.1332
61 Ar 2.15546 8.76017 2.25588
62 Ar 2.16614 8.75662 6.77445
63 Ar 2.13832 8.86529 11.0164
64 Ar 6.59638 0.0382809 2.05884
65 Ar 6.72408 -0.134212 6.80663
66 Ar 6.47942 0.0155246 11.1506
67 Ar 6.63211 4.45771 2.22243
68 Ar 6.88244 4.28414 6.51818
69 Ar 6.89586 4.62577 11.1561
70 Ar 6.49761 9.13522 2.40757
71 Ar 6.46055 8.93784 6.86147
72 Ar 6.73293 8.70785 10.9629
73 Ar 11.2043 0.0154683 1.98148
74 Ar 11.2379 0.152741 6.72329
75 Ar 11.2831 -0.136521 11.1824
76 Ar 11.111 4.36557 2.22463
77 Ar 11.2273 4.38833 6.65007
78 Ar 11.1231 4.54608 11.2352
79 Ar 11.0209 8.90219 2.32264
80 Ar 11.0019 8.98973 6.58613
81 Ar 11.2272 8.95889 11.1209
82 Ar 2.34321 2.32712 0.0999124
83 Ar 2.1167 2.21293 4.46207
84 Ar 2.42892 2.20453 8.95402
85 Ar 1.95264 6.75225 -0.0864093
86 Ar 2.21275 6.67847 4.47897
87 Ar 2.21679 6.57915 8.92942
88 Ar 2.27965 10.8971 -0.0626163
89 Ar 2.27361 11.1049 4.65254
90 Ar 2.21922 11.1239 8.75971
91 Ar 6.46153 2.38854 -0.0444523
92 Ar 6.73817 2.08545 4.62392
93 Ar 6.65857 2.22813 8.89347
94 Ar 6.58007 6.69455 0.193439
95 Ar 6.80174 6.65263 4.60026
96 Ar 6.73993 6.63122 8.81195
97 Ar 6.66462 11.0769 -0.0191301
98 Ar 6.57215 11.2403 4.65787
99 Ar 6.66806 10.921 9.03631
100 Ar 10.9082 2.3463 -0.113527
101 Ar 11.1811 2.07071 4.12029
102 Ar 11.0705 2.12774 9.09265
103 Ar 11.004 6.60825 -0.0400564
104 Ar 11.1203 6.73524 4.53776
105 Ar 11.2756 6.55183 8.77143
106 Ar 11.1492 11.0523 -0.0505716
107 Ar 11.1601 11.1038 4.18692
108 Ar 11.1687 11.3149 8.94414
ITEM: TIMESTEP
16010
ITEM: NUMBER OF ATOMS
108
ITEM: BOX BOUNDS pp pp pp
0.0000000000000000e+00 1.3349999400000000e+01
0.0000000000000000e+00 1.3349999400000000e+01
0.0000000000000000e+00 1.3349999400000000e+01
ITEM: ATOMS id element xu yu zu
1 Ar 0.0722076 -0.013152 0.0255012
2 Ar -0.0625479 -0.147663 4.46677
3 Ar 0.258247 0.140756 8.80722
4 Ar 0.0317056 4.34778 0.0197794
5 Ar -0.0228605 4.59858 4.20408
6 Ar 0.0458207 4.29985 8.88309
7 Ar -0.0720463 9.00234 0.0391041
8 Ar 0.0587086 8.6906 4.51847
9 Ar -0.16995 8.87746 8.83111
10 Ar 4.26361 0.00271203 0.00647624
11 Ar 4.46529 -0.0555064 4.41908
12 Ar 4.42607 -0.113018 8.81204
13 Ar 4.46179 4.48559 -0.0660993
14 Ar 4.39116 4.49173 4.61305
15 Ar 4.65107 4.47326 8.91056
16 Ar 4.59696 8.87216 -0.0696803
17 Ar 4.32086 8.90033 4.46702
18 Ar 4.31615 8.88404 8.90649
19 Ar 8.80592 0.166647 -0.17993
20 Ar 8.97914 -0.0798422 4.44893
21 Ar 8.81717 0.116778 9.12756
22 Ar 8.82698 4.4083 0.179206
23 Ar 9.03782 4.36763 4.41844
24 Ar 8.90972 4.49506 8.8734
25 Ar 8.973 8.91459 -0.142598
26 Ar 8.83373 8.96273 4.46689
27 Ar 9.10625 8.96159 8.78951
28 Ar 0.0450417 2.10213 2.20776
29 Ar 0.0297699 2.20458 6.47509
30 Ar 0.0442121 2.20649 11.3011
31 Ar -0.112753 6.66399 2.10426
32 Ar 0.00937133 6.55078 6.64735
33 Ar -0.149222 6.77684 10.9708
34 Ar 0.26483 11.0074 2.36071
35 Ar -0.0482651 11.0925 6.515
36 Ar 0.0506921 11.2166 11.1598
37 Ar 4.33171 2.37401 2.39966
38 Ar 4.62036 2.18978 6.71407
39 Ar 4.56891 2.38111 10.953
40 Ar 4.44196 6.76786 2.29429
41 Ar 4.42258 6.52786 6.54651
42 Ar 4.43692 6.65099 11.2483
43 Ar 4.34336 11.2123 2.19442
44 Ar 4.41698 11.0286 6.78106
45 Ar 4.26443 11.0398 11.1559
46 Ar 8.79923 2.09526 2.26692
47 Ar 9.05309 2.21288 6.73831
48 Ar 8.8944 2.34216 11.0506
49 Ar 8.71099 6.81098 2.22522
50 Ar 8.81495 6.80082 6.59121
51 Ar 8.81114 6.75339 11.1154
52 Ar 8.90891 11.3331 2.21613
53 Ar 9.0359 11.2432 6.79898
54 Ar 8.94648 11.0793 11.0675
55 Ar 2.20833 -0.040707 2.45069
56 Ar 2.26716 0.100507 6.49252
57 Ar 2.35398 0.115928 11.2179
58 Ar 2.41888 4.71522 2.10795
59 Ar 2.20865 4.35937 6.88303
60 Ar 2.24577 4.39198 11.1579
61 Ar 2.15748 8.75596 2.27271
62 Ar 2.14927 8.75195 6.77078
63 Ar 2.13695 8.84886 11.0002
64 Ar 6.59497 0.0337647 2.06021
65 Ar 6.73811 -0.15112 6.80496
66 Ar 6.4802 0.00820862 11.1171
67 Ar 6.64174 4.45344 2.2338
68 Ar 6.86442 4.30306 6.51817
69 Ar 6.90367 4.63512 11.1745
70 Ar 6.51324 9.12561 2.40608
71 Ar 6.45867 8.93849 6.86738
72 Ar 6.74559 8.70772 10.9653
73 Ar 11.1857 0.0128118 1.992
74 Ar 11.2257 0.150673 6.71096
75 Ar 11.2671 -0.135199 11.1687
76 Ar 11.1358 4.36133 2.19668
77 Ar 11.24 4.40458 6.65709
78 Ar 11.1203 4.54776 11.2372
79 Ar 11.0282 8.91915 2.32727
80 Ar 10.9982 8.98176 6.57746
81 Ar 11.2493 8.9547 11.1229
82 Ar 2.34592 2.32706 0.0959406
83 Ar 2.11514 2.21285 4.45869
84 Ar 2.41917 2.19914 8.95625
85 Ar 1.95665 6.7767 -0.085805
86 Ar 2.18977 6.65315 4.47563
87 Ar 2.21089 6.58771 8.93944
88 Ar 2.27952 10.9142 -0.0840359
89 Ar 2.26575 11.105 4.64956
90 Ar 2.20884 11.1382 8.74477
91 Ar 6.46608 2.37526 -0.0365707
92 Ar 6.74347 2.09451 4.62707
93 Ar 6.66767 2.24519 8.90412
94 Ar 6.5711 6.70934 0.191835
95 Ar 6.81478 6.64634 4.58881
96 Ar 6.73337 6.63073 8.81246
97 Ar 6.68016 11.101 -0.0078076
98 Ar 6.56194 11.2348 4.64008
99 Ar 6.65977 10.9404 9.02403
100 Ar 10.936 2.33905 -0.118438
101 Ar 11.176 2.0567 4.12933
102 Ar 11.0918 2.13745 9.10682
103 Ar 11.008 6.59406 -0.0209613
104 Ar 11.1246 6.74662 4.52558
105 Ar 11.2619 6.53559 8.78675
106 Ar 11.1496 11.062 -0.0735645
107 Ar 11.1474 11.1084 4.19316
108 Ar 11.1493 11.3118 8.96064
ITEM: TIMESTEP
16020
ITEM: NUMBER OF ATOMS
108
ITEM: BOX BOUNDS pp pp pp
0.0000000000000000e+00 1.3349999400000000e+01
0.0000000000000000e+00 1.3349999400000000e+01
0.0000000000000000e+00 1.3349999400000000e+01
ITEM: ATOMS id element xu yu zu
1 Ar 0.0768614 -0.000991138 0.0225695
2 Ar -0.0571738 -0.129688 4.47244
3 Ar 0.233195 0.147216 8.80804
4 Ar 0.0167689 4.34507 0.017769
5 Ar -0.0152811 4.58938 4.23092
6 Ar 0.0445083 4.29373 8.90507
7 Ar -0.066108 9.00798 0.0399884
8 Ar 0.0488425 8.7134 4.52732
9 Ar -0.180547 8.86429 8.82346
10 Ar 4.28 0.0149463 0.0153254
11 Ar 4.48637 -0.054672 4.41045
12 Ar 4.45142 -0.112121 8.80352
13 Ar 4.44395 4.49338 -0.0598919
14 Ar 4.39723 4.48465 4.59282
15 Ar 4.65341 4.47213 8.91379
16 Ar 4.6048 8.87762 -0.0817481
17 Ar 4.3276 8.90507 4.46463
18 Ar 4.33578 8.87776 8.90401
19 Ar 8.80952 0.157321 -0.163192
20 Ar 8.98609 -0.0830587 4.43375
21 Ar 8.81238 0.0980137 9.10992
22 Ar 8.83564 4.3844 0.181322
23 Ar 9.04398 4.34922 4.42764
24 Ar 8.90998 4.49345 8.88001
25 Ar 8.98224 8.91281 -0.142214
26 Ar 8.82391 8.96675 4.46321
27 Ar 9.11085 8.94947 8.78953
28 Ar 0.0675564 2.10127 2.20975
29 Ar 0.0365151 2.18845 6.49421
30 Ar 0.0317216 2.23303 11.2855
31 Ar -0.146505 6.67159 2.0966
32 Ar -0.00297873 6.55732 6.65687
33 Ar -0.142586 6.76858 10.9739
34 Ar 0.255023 11.0117 2.35553
35 Ar -0.045444 11.1021 6.52127
36 Ar 0.0458646 11.1947 11.1331
37 Ar 4.35973 2.36443 2.42694
38 Ar 4.61451 2.19242 6.73104
39 Ar 4.56159 2.39697 10.9565
40 Ar 4.43712 6.77561 2.28237
41 Ar 4.41913 6.52073 6.55076
42 Ar 4.43149 6.65186 11.2544
43 Ar 4.34453 11.2144 2.18087
44 Ar 4.3958 11.0239 6.75527
45 Ar 4.26573 11.0343 11.1684
46 Ar 8.78486 2.10098 2.24794
47 Ar 9.0492 2.20464 6.75188
48 Ar 8.92117 2.34366 11.0622
49 Ar 8.71521 6.81522 2.2278
50 Ar 8.83014 6.79655 6.56566
51 Ar 8.80096 6.7577 11.1073
52 Ar 8.89405 11.3292 2.22227
53 Ar 9.0129 11.2441 6.79992
54 Ar 8.92846 11.0668 11.0781
55 Ar 2.21542 -0.0276314 2.44958
56 Ar 2.28484 0.092477 6.50686
57 Ar 2.35505 0.10057 11.2174
58 Ar 2.41265 4.72225 2.09998
59 Ar 2.19443 4.33731 6.89354
60 Ar 2.25072 4.40151 11.1818
61 Ar 2.16122 8.75271 2.28844
62 Ar 2.13284 8.74804 6.76653
63 Ar 2.13495 8.83265 10.9846
64 Ar 6.59294 0.0294759 2.06324
65 Ar 6.75223 -0.166075 6.80394
66 Ar 6.48151 2.826e-05 11.0842
67 Ar 6.65062 4.44855 2.24819
68 Ar 6.84512 4.32437 6.52082
69 Ar 6.90784 4.64249 11.193
70 Ar 6.53125 9.11476 2.40331
71 Ar 6.46024 8.93769 6.86983
72 Ar 6.75615 8.71032 10.9696
73 Ar 11.1662 0.00883672 2.00249
74 Ar 11.2125 0.146637 6.69876
75 Ar 11.2494 -0.130268 11.1557
76 Ar 11.1597 4.35853 2.16806
77 Ar 11.2513 4.41945 6.66303
78 Ar 11.1173 4.54858 11.2364
79 Ar 11.0363 8.93484 2.32901
80 Ar 10.9977 8.97356 6.56864
81 Ar 11.2691 8.95004 11.1239
82 Ar 2.34784 2.32572 0.0918724
83 Ar 2.11542 2.21578 4.45427
84 Ar 2.40782 2.19415 8.95734
85 Ar 1.96361 6.8007 -0.086193
86 Ar 2.16736 6.62638 4.4725
87 Ar 2.20537 6.59608 8.94969
88 Ar 2.27791 10.9329 -0.103074
89 Ar 2.25816 11.1035 4.64492
90 Ar 2.19612 11.1525 8.73157
91 Ar 6.4726 2.35929 -0.0283387
92 Ar 6.74878 2.10285 4.62669
93 Ar 6.67863 2.2621 8.91411
94 Ar 6.56427 6.72452 0.18799
95 Ar 6.8241 6.64066 4.57436
96 Ar 6.72575 6.6306 8.81228
97 Ar 6.69595 11.1253 0.00213021
98 Ar 6.55384 11.2273 4.62003
99 Ar 6.65168 10.9628 9.0118
100 Ar 10.9668 2.32944 -0.121735
101 Ar 11.1705 2.04433 4.14301
102 Ar 11.1157 2.14857 9.11934
103 Ar 11.013 6.58177 -0.000496512
104 Ar 11.1273 6.75635 4.5118
105 Ar 11.2443 6.52051 8.80226
106 Ar 11.1491 11.0732 -0.0939555
107 Ar 11.1349 11.1137 4.20291
108 Ar 11.1318 11.3076 8.97525
ITEM: TIMESTEP
16030
ITEM: NUMBER OF ATOMS
108
ITEM: BOX BOUNDS pp pp pp
0.0000000000000000e+00 1.3349999400000000e+01
0.0000000000000000e+00 1.3349999400000000e+01
0.0000000000000000e+00 1.3349999400000000e+01
ITEM: ATOMS id element xu yu zu
1 Ar 0.0827614 0.0101403 0.0199564
2 Ar -0.0516799 -0.110393 4.47674
3 Ar 0.205982 0.152531 8.81008
4 Ar 0.00191847 4.34414 0.0163037
5 Ar -0.00713139 4.57719 4.25965
6 Ar 0.0421733 4.28718 8.92885
7 Ar -0.0604671 9.01229 0.0408976
8 Ar 0.0378969 8.73879 4.53514
9 Ar -0.189661 8.85321 8.81437
10 Ar 4.2987 0.0275299 0.0252498
11 Ar 4.50783 -0.0519824 4.40321
12 Ar 4.47658 -0.110548 8.79639
13 Ar 4.4266 4.5022 -0.0528457
14 Ar 4.40376 4.47535 4.57015
15 Ar 4.65402 4.47298 8.916
16 Ar 4.61013 8.88391 -0.0924743
17 Ar 4.33551 8.90948 4.46345
18 Ar 4.35562 8.86962 8.90292
19 Ar 8.81316 0.14615 -0.146512
20 Ar 8.99191 -0.0851953 4.42
21 Ar 8.80842 0.0773996 9.09074
22 Ar 8.84394 4.36215 0.182322
23 Ar 9.05023 4.33153 4.43612
24 Ar 8.91148 4.49195 8.88559
25 Ar 8.98974 8.91124 -0.138933
26 Ar 8.81303 8.97289 4.45966
27 Ar 9.11377 8.93576 8.79166
28 Ar 0.0905045 2.10259 2.21069
29 Ar 0.0417139 2.17409 6.5151
30 Ar 0.0193907 2.25864 11.2678
31 Ar -0.180033 6.68006 2.08969
32 Ar -0.014697 6.56416 6.66719
33 Ar -0.133658 6.75747 10.9798
34 Ar 0.242579 11.017 2.34854
35 Ar -0.0438489 11.1113 6.53059
36 Ar 0.0432186 11.1721 11.1047
37 Ar 4.3894 2.35325 2.45297
38 Ar 4.6064 2.19499 6.74707
39 Ar 4.55376 2.411 10.9634
40 Ar 4.43401 6.78327 2.2708
41 Ar 4.41618 6.51649 6.55852
42 Ar 4.42592 6.65296 11.2578
43 Ar 4.3457 11.2143 2.16764
44 Ar 4.37461 11.0207 6.72844
45 Ar 4.2703 11.0295 11.1786
46 Ar 8.77061 2.10749 2.22841
47 Ar 9.04487 2.19587 6.76489
48 Ar 8.94579 2.34499 11.0755
49 Ar 8.72212 6.81866 2.23083
50 Ar 8.8479 6.79037 6.54322
51 Ar 8.79613 6.76136 11.099
52 Ar 8.87782 11.3226 2.22627
53 Ar 8.98915 11.2446 6.79939
54 Ar 8.90921 11.0552 11.0894
55 Ar 2.22269 -0.0143064 2.44538
56 Ar 2.30284 0.083808 6.52351
57 Ar 2.35429 0.0845997 11.2148
58 Ar 2.40284 4.72661 2.0935
59 Ar 2.1815 4.3157 6.90063
60 Ar 2.25467 4.41243 11.2046
61 Ar 2.16632 8.75063 2.30292
62 Ar 2.11726 8.74487 6.76182
63 Ar 2.13245 8.81726 10.9696
64 Ar 6.59043 0.0255186 2.0681
65 Ar 6.76601 -0.178627 6.80314
66 Ar 6.48341 -0.00869798 11.0526
67 Ar 6.65871 4.44335 2.26507
68 Ar 6.82494 4.34766 6.52608
69 Ar 6.90828 4.64762 11.2115
70 Ar 6.55118 9.10283 2.39905
71 Ar 6.46532 8.93554 6.86866
72 Ar 6.76428 8.71596 10.9758
73 Ar 11.1465 0.00366889 2.01269
74 Ar 11.1985 0.140552 6.68699
75 Ar 11.2304 -0.121849 11.1438
76 Ar 11.1822 4.35671 2.13981
77 Ar 11.2609 4.43252 6.66783
78 Ar 11.1138 4.54877 11.233
79 Ar 11.0449 8.94935 2.32774
80 Ar 11.0004 8.96549 6.55988
81 Ar 11.286 8.94478 11.1241
82 Ar 2.34904 2.32306 0.0878729
83 Ar 2.11759 2.22159 4.44924
84 Ar 2.39509 2.18939 8.95769
85 Ar 1.97327 6.82394 -0.0872647
86 Ar 2.14584 6.5988 4.46976
87 Ar 2.20037 6.60383 8.95976
88 Ar 2.27459 10.9529 -0.119376
89 Ar 2.2508 11.1007 4.63838
90 Ar 2.18151 11.1665 8.72038
91 Ar 6.48069 2.34107 -0.0200541
92 Ar 6.75411 2.11042 4.62321
93 Ar 6.69143 2.27866 8.92343
94 Ar 6.55991 6.7396 0.182162
95 Ar 6.8294 6.63565 4.55709
96 Ar 6.71735 6.63082 8.81135
97 Ar 6.71169 11.1493 0.0105137
98 Ar 6.54798 11.2178 4.59799
99 Ar 6.64387 10.9876 8.99981
100 Ar 11 2.31727 -0.123281
101 Ar 11.1647 2.03411 4.16075
102 Ar 11.1417 2.16085 9.1297
103 Ar 11.0184 6.57164 0.0206627
104 Ar 11.1284 6.76413 4.49637
105 Ar 11.2231 6.50686 8.81795
106 Ar 11.1478 11.0859 -0.111502
107 Ar 11.1228 11.1199 4.21623
108 Ar 11.1162 11.3023 8.98752
ITEM: TIMESTEP
16040
ITEM: NUMBER OF ATOMS
108
ITEM: BOX BOUNDS pp pp pp
0.0000000000000000e+00 1.3349999400000000e+01
0.0000000000000000e+00 1.3349999400000000e+01
0.0000000000000000e+00 1.3349999400000000e+01
ITEM: ATOMS id element xu yu zu
1 Ar 0.089569 0.0201033 0.017426
2 Ar -0.0459817 -0.0902475 4.47961
3 Ar 0.176897 0.156478 8.81343
4 Ar -0.0122225 4.34517 0.0152946
5 Ar 0.00103856 4.5621 4.2897
6 Ar 0.0390182 4.28069 8.95397
7 Ar -0.0551598 9.01543 0.0418205
8 Ar 0.0261302 8.76631 4.54173
9 Ar -0.19735 8.84421 8.80392
10 Ar 4.31937 0.0404118 0.0357762
11 Ar 4.52918 -0.0475429 4.39763
12 Ar 4.50099 -0.108342 8.79066
13 Ar 4.41049 4.51174 -0.044757
14 Ar 4.41055 4.46439 4.54572
15 Ar 4.65271 4.47581 8.9173
16 Ar 4.61291 8.89123 -0.101631
17 Ar 4.34443 8.9132 4.46343
18 Ar 4.37521 8.86 8.90316
19 Ar 8.81688 0.133383 -0.130277
20 Ar 8.99622 -0.0860919 4.40783
21 Ar 8.80559 0.0555986 9.07047
22 Ar 8.8518 4.34192 0.182209
23 Ar 9.0567 4.3147 4.44377
24 Ar 8.914 4.49052 8.89004
25 Ar 8.99561 8.90978 -0.132764
26 Ar 8.80136 8.98111 4.45635
27 Ar 9.11494 8.92069 8.79572
28 Ar 0.113212 2.1061 2.21075
29 Ar 0.0452886 2.16156 6.53751
30 Ar 0.00776972 2.28273 11.2485
31 Ar -0.212408 6.68928 2.08394
32 Ar -0.0256874 6.57123 6.67825
33 Ar -0.122716 6.7436 10.9885
34 Ar 0.227721 11.0233 2.33985
35 Ar -0.0436529 11.1202 6.5428
36 Ar 0.0426418 11.1496 11.0749
37 Ar 4.42021 2.34067 2.47707
38 Ar 4.59643 2.19752 6.76185
39 Ar 4.54559 2.42291 10.9736
40 Ar 4.43258 6.79073 2.25977
41 Ar 4.41348 6.51493 6.56924
42 Ar 4.42043 6.65429 11.2587
43 Ar 4.34681 11.2119 2.15485
44 Ar 4.35386 11.0189 6.7011
45 Ar 4.27818 11.0255 11.186
46 Ar 8.75692 2.11465 2.20878
47 Ar 9.04009 2.18693 6.77732
48 Ar 8.96791 2.34577 11.0901
49 Ar 8.73174 6.82107 2.23407
50 Ar 8.86784 6.78227 6.52417
51 Ar 8.79688 6.76427 11.0907
52 Ar 8.86057 11.3133 2.22811
53 Ar 8.96522 11.2441 6.79733
54 Ar 8.88898 11.0446 11.1011
55 Ar 2.2302 -0.00112375 2.4382
56 Ar 2.32097 0.0747696 6.54199
57 Ar 2.3518 0.0683176 11.2101
58 Ar 2.38947 4.72817 2.0885
59 Ar 2.17003 4.2951 6.9043
60 Ar 2.25744 4.42466 11.2259
61 Ar 2.17243 8.74988 2.31611
62 Ar 2.10289 8.7424 6.75675
63 Ar 2.12958 8.80329 10.9554
64 Ar 6.58763 0.0219614 2.07495
65 Ar 6.77896 -0.18835 6.80206
66 Ar 6.48597 -0.0176232 11.0231
67 Ar 6.66601 4.43815 2.28388
68 Ar 6.80421 4.37247 6.53379
69 Ar 6.90498 4.65034 11.23
70 Ar 6.57256 9.08997 2.39308
71 Ar 6.47389 8.93219 6.86384
72 Ar 6.76981 8.72479 10.9836
73 Ar 11.127 -0.0025196 2.02246
74 Ar 11.1837 0.132362 6.67592
75 Ar 11.2106 -0.110177 11.1332
76 Ar 11.203 4.35535 2.11301
77 Ar 11.2687 4.44339 6.67145
78 Ar 11.1099 4.54855 11.2274
79 Ar 11.054 8.96286 2.32348
80 Ar 11.006 8.95784 6.55137
81 Ar 11.2997 8.93878 11.1237
82 Ar 2.34961 2.31908 0.0840442
83 Ar 2.12172 2.23002 4.44405
84 Ar 2.38122 2.18468 8.9577
85 Ar 1.9854 6.84616 -0.0886708
86 Ar 2.12553 6.57109 4.46757
87 Ar 2.19597 6.61055 8.96921
88 Ar 2.26942 10.974 -0.132686
89 Ar 2.2436 11.0968 4.62976
90 Ar 2.16553 11.1801 8.71142
91 Ar 6.49 2.32111 -0.0120024
92 Ar 6.75953 2.11717 4.61715
93 Ar 6.70597 2.29475 8.93212
94 Ar 6.55834 6.75414 0.174622
95 Ar 6.83054 6.63139 4.53732
96 Ar 6.70847 6.63139 8.8097
97 Ar 6.72703 11.1727 0.0171934
98 Ar 6.54444 11.2065 4.57432
99 Ar 6.63637 11.0139 8.98817
100 Ar 11.0353 2.30243 -0.122967
101 Ar 11.1586 2.02647 4.18192
102 Ar 11.169 2.17405 9.13743
103 Ar 11.0239 6.56386 0.041752
104 Ar 11.128 6.76975 4.47931
105 Ar 11.1987 6.49491 8.83381
106 Ar 11.1458 11.0999 -0.126081
107 Ar 11.1114 11.1269 4.23303
108 Ar 11.1024 11.2957 8.9971
ITEM: TIMESTEP
16050
ITEM: NUMBER OF ATOMS
108
ITEM: BOX BOUNDS pp pp pp
0.0000000000000000e+00 1.3349999400000000e+01
0.0000000000000000e+00 1.3349999400000000e+01
0.0000000000000000e+00 1.3349999400000000e+01
ITEM: ATOMS id element xu yu zu
1 Ar 0.0969584 0.0287869 0.0147663
2 Ar -0.0399713 -0.0697106 4.48105
3 Ar 0.146262 0.158825 8.81814
4 Ar -0.0250416 4.3483 0.0145748
5 Ar 0.00865616 4.54421 4.32054
6 Ar 0.035301 4.27482 8.97989
7 Ar -0.0502228 9.01757 0.0427052
8 Ar 0.0137972 8.79545 4.54695
9 Ar -0.203696 8.83719 8.79229
10 Ar 4.34161 0.0534964 0.0464029
11 Ar 4.54996 -0.0415469 4.39398
12 Ar 4.52408 -0.105512 8.78627
13 Ar 4.39625 4.52171 -0.0354314
14 Ar 4.41743 4.45244 4.52024
15 Ar 4.64931 4.48052 8.91783
16 Ar 4.61308 8.89972 -0.109018
17 Ar 4.35422 8.91591 4.46444
18 Ar 4.39418 8.8493 8.90456
19 Ar 8.82075 0.119294 -0.114834
20 Ar 8.99863 -0.0856349 4.39733
21 Ar 8.80414 0.0332477 9.04963
22 Ar 8.85919 4.32402 0.180976
23 Ar 9.06344 4.29887 4.45051
24 Ar 8.91729 4.48907 8.89332
25 Ar 8.99998 8.90835 -0.123779
26 Ar 8.78926 8.99126 4.45344
27 Ar 9.11434 8.90453 8.80146
28 Ar 0.135023 2.1118 2.21009
29 Ar 0.0472064 2.15087 6.56115
30 Ar -0.00257528 2.30477 11.2281
31 Ar -0.242644 6.69912 2.0798
32 Ar -0.035893 6.57848 6.68996
33 Ar -0.11012 6.72712 10.9997
34 Ar 0.210688 11.0309 2.32957
35 Ar -0.0449577 11.1288 6.5577
36 Ar 0.0439556 11.1275 11.0442
37 Ar 4.45161 2.32691 2.49856
38 Ar 4.58504 2.20004 6.77513
39 Ar 4.53726 2.43245 10.9869
40 Ar 4.43277 6.79781 2.24943
41 Ar 4.41078 6.51583 6.58232
42 Ar 4.41524 6.65587 11.2567
43 Ar 4.34781 11.2071 2.14258
44 Ar 4.33403 11.0182 6.67384
45 Ar 4.28932 11.0225 11.1904
46 Ar 8.74425 2.12226 2.18953
47 Ar 9.03481 2.17816 6.78913
48 Ar 8.98728 2.34564 11.1057
49 Ar 8.74405 6.82224 2.23732
50 Ar 8.8895 6.77223 6.50862
51 Ar 8.80318 6.76637 11.0827
52 Ar 8.84272 11.3012 2.22791
53 Ar 8.94171 11.2421 6.79374
54 Ar 8.86805 11.035 11.113
55 Ar 2.23805 0.011543 2.42825
56 Ar 2.33893 0.0656465 6.56175
57 Ar 2.34776 0.0520138 11.2033
58 Ar 2.37262 4.7269 2.08495
59 Ar 2.16012 4.27606 6.90459
60 Ar 2.25886 4.43806 11.2455
61 Ar 2.17918 8.75056 2.32796
62 Ar 2.0901 8.74062 6.75139
63 Ar 2.1265 8.79133 10.942
64 Ar 6.58477 0.01883 2.08393
65 Ar 6.79059 -0.194844 6.80016
66 Ar 6.48932 -0.0263747 10.9962
67 Ar 6.67256 4.43321 2.30398
68 Ar 6.78329 4.3983 6.54371
69 Ar 6.89805 4.65058 11.2482
70 Ar 6.59488 9.07632 2.38519
71 Ar 6.48584 8.92785 6.85541
72 Ar 6.77263 8.7368 10.9926
73 Ar 11.1083 -0.00952458 2.03171
74 Ar 11.1683 0.122042 6.6658
75 Ar 11.1903 -0.0955853 11.1239
76 Ar 11.2219 4.35396 2.08867
77 Ar 11.2746 4.45177 6.67391
78 Ar 11.1054 4.5481 11.2201
79 Ar 11.0631 8.9756 2.31636
80 Ar 11.014 8.95087 6.54336
81 Ar 11.3099 8.93192 11.1227
82 Ar 2.34963 2.31378 0.0804251
83 Ar 2.1278 2.24077 4.43912
84 Ar 2.36647 2.17986 8.95775
85 Ar 1.99976 6.86712 -0.0900396
86 Ar 2.10674 6.54394 4.46609
87 Ar 2.19223 6.61584 8.97758
88 Ar 2.26235 10.9959 -0.142861
89 Ar 2.23643 11.0921 4.61888
90 Ar 2.14876 11.1928 8.70486
91 Ar 6.50019 2.29994 -0.00445575
92 Ar 6.76511 2.12318 4.60914
93 Ar 6.72206 2.31022 8.94024
94 Ar 6.55975 6.76775 0.165633
95 Ar 6.82754 6.62792 4.51547
96 Ar 6.69942 6.63233 8.80746
97 Ar 6.74156 11.195 0.0220464
98 Ar 6.54319 11.1936 4.5494
99 Ar 6.62922 11.0407 8.97691
100 Ar 11.0722 2.2849 -0.120721
101 Ar 11.1525 2.02173 4.20587
102 Ar 11.1965 2.18792 9.14208
103 Ar 11.0289 6.55863 0.0619451
104 Ar 11.1263 6.77304 4.46068
105 Ar 11.1718 6.48493 8.8498
106 Ar 11.1432 11.1152 -0.137686
107 Ar 11.1007 11.1346 4.25312
108 Ar 11.0903 11.2877 9.00377
ITEM: TIMESTEP
16060
ITEM: NUMBER OF ATOMS
108
ITEM: BOX BOUNDS pp pp pp
0.0000000000000000e+00 1.3349999400000000e+01
0.0000000000000000e+00 1.3349999400000000e+01
0.0000000000000000e+00 1.3349999400000000e+01
ITEM: ATOMS id element xu yu zu
1 Ar 0.104626 0.0361064 0.0117963
2 Ar -0.0335321 -0.0492069 4.48112
3 Ar 0.114426 0.159335 8.82426
4 Ar -0.0359686 4.35361 0.0139117
5 Ar 0.0151591 4.52365 4.35168
6 Ar 0.0313284 4.27022 9.00591
7 Ar -0.0456899 9.01889 0.0434622
8 Ar 0.00114065 8.82569 4.55062
9 Ar -0.208798 8.83198 8.77975
10 Ar 4.36497 0.0666374 0.0566273
11 Ar 4.5697 -0.0342706 4.39249
12 Ar 4.54525 -0.102028 8.78316
13 Ar 4.38445 4.53187 -0.0246966
14 Ar 4.42421 4.4402 4.49448
15 Ar 4.64371 4.48688 8.91778
16 Ar 4.61068 8.90945 -0.114467
17 Ar 4.36478 8.91729 4.46635
18 Ar 4.41222 8.83792 8.90694
19 Ar 8.82481 0.104182 -0.100476
20 Ar 8.99883 -0.0837636 4.38851
21 Ar 8.80432 0.0109358 9.02868
22 Ar 8.86612 4.30876 0.17861
23 Ar 9.07044 4.28419 4.45631
24 Ar 8.92109 4.48752 8.89542
25 Ar 9.00295 8.9069 -0.112118
26 Ar 8.77709 9.00308 4.45111
27 Ar 9.11198 8.88759 8.80856
28 Ar 0.155332 2.11965 2.20888
29 Ar 0.0474722 2.142 6.58572
30 Ar -0.0110859 2.32426 11.2073
31 Ar -0.26974 6.70948 2.07767
32 Ar -0.0452962 6.58581 6.7022
33 Ar -0.0962826 6.7083 11.0134
34 Ar 0.191724 11.04 2.31783
35 Ar -0.0477951 11.1375 6.57496
36 Ar 0.0469187 11.1064 11.0129
37 Ar 4.48306 2.31214 2.51678
38 Ar 4.5727 2.20264 6.78668
39 Ar 4.5289 2.43947 11.0029
40 Ar 4.43441 6.80431 2.23988
41 Ar 4.40785 6.51893 6.59708
42 Ar 4.41058 6.65772 11.2522
43 Ar 4.3487 11.1999 2.13096
44 Ar 4.31562 11.0186 6.64729
45 Ar 4.30354 11.0204 11.1915
46 Ar 8.73303 2.13009 2.17113
47 Ar 9.02903 2.16987 6.80025
48 Ar 9.00373 2.34429 11.1219
49 Ar 8.759 6.82194 2.24042
50 Ar 8.91237 6.76034 6.4965
51 Ar 8.8147 6.7676 11.0752
52 Ar 8.82473 11.2865 2.22583
53 Ar 8.91915 11.2381 6.78859
54 Ar 8.84679 11.0267 11.1246
55 Ar 2.24633 0.023356 2.41577
56 Ar 2.35641 0.0567265 6.58223
57 Ar 2.3424 0.0359609 11.1945
58 Ar 2.35243 4.72284 2.08279
59 Ar 2.15184 4.25908 6.90167
60 Ar 2.25882 4.45247 11.263
61 Ar 2.18619 8.75276 2.33849
62 Ar 2.07919 8.73949 6.74582
63 Ar 2.12335 8.78193 10.9297
64 Ar 6.58211 0.0160993 2.09512
65 Ar 6.80039 -0.197755 6.7969
66 Ar 6.49356 -0.0345602 10.9726
67 Ar 6.67845 4.42879 2.32472
68 Ar 6.76253 4.42465 6.5555
69 Ar 6.88771 4.64843 11.2661
70 Ar 6.61761 9.06197 2.37515
71 Ar 6.501 8.92277 6.84353
72 Ar 6.77279 8.75178 11.0026
73 Ar 11.0906 -0.0171245 2.04045
74 Ar 11.1524 0.109606 6.65686
75 Ar 11.1698 -0.0785001 11.1161
76 Ar 11.2386 4.35204 2.06775
77 Ar 11.2784 4.45747 6.67529
78 Ar 11.1003 4.54756 11.2115
79 Ar 11.072 8.98787 2.30658
80 Ar 11.0241 8.94474 6.53605
81 Ar 11.3165 8.9241 11.1214
82 Ar 2.34919 2.30723 0.0769965
83 Ar 2.13585 2.25345 4.43485
84 Ar 2.35109 2.17482 8.95822
85 Ar 2.01614 6.88661 -0.090997
86 Ar 2.08973 6.51801 4.46542
87 Ar 2.18917 6.61936 8.98445
88 Ar 2.25341 11.0182 -0.149871
89 Ar 2.22913 11.087 4.60564
90 Ar 2.13177 11.2046 8.70084
91 Ar 6.51101 2.27806 0.00232943
92 Ar 6.77092 2.12853 4.59982
93 Ar 6.7394 2.32495 8.94788
94 Ar 6.56429 6.7801 0.15544
95 Ar 6.82058 6.62533 4.49209
96 Ar 6.69057 6.63367 8.80486
97 Ar 6.75484 11.2159 0.0249848
98 Ar 6.54416 11.1794 4.52364
99 Ar 6.62245 11.067 8.96601
100 Ar 11.1102 2.26476 -0.116509
101 Ar 11.1466 2.02011 4.23194
102 Ar 11.2234 2.20223 9.14327
103 Ar 11.033 6.55605 0.0803949
104 Ar 11.1235 6.77392 4.44063
105 Ar 11.143 6.47718 8.86582
106 Ar 11.1404 11.1315 -0.146419
107 Ar 11.0911 11.1429 4.27623
108 Ar 11.0798 11.2782 9.00746
ITEM: TIMESTEP
16070
ITEM: NUMBER OF ATOMS
108
ITEM: BOX BOUNDS pp pp pp
0.0000000000000000e+00 1.3349999400000000e+01
0.0000000000000000e+00 1.3349999400000000e+01
0.0000000000000000e+00 1.3349999400000000e+01
ITEM: ATOMS id element xu yu zu
1 Ar 0.1123 0.0420003 0.00836985
2 Ar -0.0265527 -0.0291118 4.4799
3 Ar 0.0817614 0.157777 8.83181
4 Ar -0.0445121 4.3611 0.0130321
5 Ar 0.0200278 4.50056 4.38267
6 Ar 0.0274408 4.26762 9.03127
7 Ar -0.0415876 9.01952 0.0439685
8 Ar -0.0116134 8.8565 4.55262
9 Ar -0.212759 8.82836 8.76666
10 Ar 4.38896 0.0796356 0.065972
11 Ar 4.58797 -0.0260604 4.39339
12 Ar 4.56397 -0.0978243 8.78121
13 Ar 4.37549 4.54198 -0.0124148
14 Ar 4.43073 4.42835 4.46919
15 Ar 4.63581 4.49455 8.9174
16 Ar 4.60574 8.92036 -0.117852
17 Ar 4.37597 8.91709 4.46899
18 Ar 4.42911 8.8263 8.91004
19 Ar 8.82916 0.0883638 -0.0874368
20 Ar 8.99653 -0.0804726 4.38133
21 Ar 8.80633 -0.0108115 9.00809
22 Ar 8.87262 4.29639 0.175097
23 Ar 9.07761 4.27082 4.46118
24 Ar 8.92507 4.48574 8.89638
25 Ar 9.00465 8.9054 -0.0979906
26 Ar 8.76529 9.01623 4.44954
27 Ar 9.10786 8.87023 8.8167
28 Ar 0.17361 2.1296 2.20727
29 Ar 0.0461239 2.13484 6.61088
30 Ar -0.0172415 2.34071 11.1869
31 Ar -0.292737 6.72026 2.07793
32 Ar -0.0539173 6.59307 6.7148
33 Ar -0.0816472 6.68753 11.0292
34 Ar 0.171078 11.0505 2.3048
35 Ar -0.0521286 11.1463 6.59421
36 Ar 0.0512303 11.0867 10.9816
37 Ar 4.51403 2.29652 2.53109
38 Ar 4.55986 2.20542 6.79634
39 Ar 4.52064 2.44389 11.0214
40 Ar 4.43735 6.81004 2.23121
41 Ar 4.40442 6.52401 6.61288
42 Ar 4.40668 6.65988 11.245
43 Ar 4.34945 11.1903 2.1201
44 Ar 4.2991 11.0197 6.622
45 Ar 4.32053 11.0193 11.1895
46 Ar 8.72371 2.13789 2.15403
47 Ar 9.02273 2.16232 6.81062
48 Ar 9.01717 2.3415 11.1384
49 Ar 8.77645 6.82001 2.24328
50 Ar 8.93587 6.74669 6.48764
51 Ar 8.83087 6.76794 11.0685
52 Ar 8.80713 11.2692 2.22214
53 Ar 8.89804 11.2314 6.78191
54 Ar 8.82562 11.0197 11.1357
55 Ar 2.25512 0.0340286 2.40105
56 Ar 2.37304 0.0482886 6.60288
57 Ar 2.33595 0.0204066 11.1839
58 Ar 2.32915 4.71611 2.08193
59 Ar 2.14521 4.24458 6.89574
60 Ar 2.25727 4.46766 11.2783
61 Ar 2.19312 8.7565 2.34773
62 Ar 2.07043 8.73903 6.74007
63 Ar 2.12026 8.77557 10.9186
64 Ar 6.57997 0.0136887 2.10855
65 Ar 6.80795 -0.196801 6.79176
66 Ar 6.49885 -0.0417781 10.9528
67 Ar 6.68382 4.42511 2.34543
68 Ar 6.74223 4.45101 6.56877
69 Ar 6.87426 4.64402 11.2833
70 Ar 6.64023 9.04703 2.36278
71 Ar 6.51912 8.91718 6.82844
72 Ar 6.77041 8.7694 11.0134
73 Ar 11.0744 -0.0250941 2.04877
74 Ar 11.1363 0.0951131 6.64928
75 Ar 11.1493 -0.0594188 11.1098
76 Ar 11.2526 4.34917 2.05105
77 Ar 11.2802 4.46037 6.6757
78 Ar 11.0945 4.54698 11.2023
79 Ar 11.0806 8.99999 2.29447
80 Ar 11.0357 8.93957 6.52963
81 Ar 11.3195 8.91528 11.12
82 Ar 2.34837 2.29954 0.0736898
83 Ar 2.14583 2.2676 4.43155
84 Ar 2.33537 2.16948 8.95942
85 Ar 2.03433 6.90448 -0.091186
86 Ar 2.07474 6.49395 4.46566
87 Ar 2.18679 6.62083 8.98942
88 Ar 2.24278 11.0408 -0.153795
89 Ar 2.22153 11.0817 4.59
90 Ar 2.11518 11.215 8.6994
91 Ar 6.52223 2.25601 0.00811706
92 Ar 6.77708 2.13335 4.58986
93 Ar 6.7576 2.33886 8.95513
94 Ar 6.57197 6.79096 0.144262
95 Ar 6.80995 6.62367 4.46776
96 Ar 6.68228 6.63545 8.80218
97 Ar 6.76643 11.2349 0.0259653
98 Ar 6.54715 11.1643 4.49746
99 Ar 6.61609 11.0918 8.95537
100 Ar 11.1487 2.24218 -0.110333
101 Ar 11.141 2.02172 4.25952
102 Ar 11.2485 2.21678 9.14066
103 Ar 11.0357 6.55619 0.0962884
104 Ar 11.1197 6.77239 4.41935
105 Ar 11.1131 6.47192 8.88174
106 Ar 11.1373 11.1485 -0.152475
107 Ar 11.0825 11.1517 4.30198
108 Ar 11.0708 11.2673 9.0082
ITEM: TIMESTEP
16080
ITEM: NUMBER OF ATOMS
108
ITEM: BOX BOUNDS pp pp pp
0.0000000000000000e+00 1.3349999400000000e+01
0.0000000000000000e+00 1.3349999400000000e+01
0.0000000000000000e+00 1.3349999400000000e+01
ITEM: ATOMS id element xu yu zu
1 Ar 0.119744 0.046426 0.00437632
2 Ar -0.0189393 -0.00973872 4.47749
3 Ar 0.048649 0.153942 8.84078
4 Ar -0.0502996 4.37075 0.0116574
5 Ar 0.0228167 4.47516 4.41313
6 Ar 0.0239912 4.26774 9.05513
7 Ar -0.037932 9.01963 0.0440756
8 Ar -0.0242586 8.88738 4.55283
9 Ar -0.21568 8.82612 8.75341
10 Ar 4.41307 0.0922397 0.074007
11 Ar 4.60438 -0.0173116 4.39687
12 Ar 4.57973 -0.0928006 8.78032
13 Ar 4.36965 4.55186 0.00150711
14 Ar 4.43681 4.41756 4.44507
15 Ar 4.62555 4.50311 8.91696
16 Ar 4.59836 8.93233 -0.119101
17 Ar 4.38767 8.91508 4.47219
18 Ar 4.44469 8.81484 8.91355
19 Ar 8.83386 0.0721667 -0.0758809
20 Ar 8.99153 -0.0758106 4.37568
21 Ar 8.81028 -0.0315437 8.98828
22 Ar 8.87876 4.28713 0.170429
23 Ar 9.0848 4.25892 4.46513
24 Ar 8.92894 4.48359 8.89624
25 Ar 9.00518 8.90386 -0.081679
26 Ar 8.7543 9.03023 4.4489
27 Ar 9.10198 8.85283 8.82551
28 Ar 0.18943 2.14153 2.20541
29 Ar 0.0432317 2.12924 6.63629
30 Ar -0.0205951 2.3537 11.1677
31 Ar -0.310773 6.73133 2.08086
32 Ar -0.0618091 6.60009 6.72755
33 Ar -0.0666629 6.66524 11.0469
34 Ar 0.148996 11.0625 2.29067
35 Ar -0.0578574 11.1554 6.61503
36 Ar 0.0565306 11.0686 10.9509
37 Ar 4.54399 2.28025 2.54092
38 Ar 4.54697 2.20848 6.804