ITEM: TIMESTEP
4000
ITEM: NUMBER OF ATOMS
108
ITEM: BOX BOUNDS pp pp pp
0.0000000000000000e+00 1.3349999400000000e+01
0.0000000000000000e+00 1.3349999400000000e+01
0.0000000000000000e+00 1.3349999400000000e+01
ITEM: ATOMS id element xu yu zu
1 Ar -0.0140106 -0.00200311 0.00951775
2 Ar 0.036304 0.129358 4.53872
3 Ar 0.0677746 0.103339 8.94925
4 Ar 0.122146 4.47793 0.213365
5 Ar 0.0731794 4.35716 4.46671
6 Ar 0.141821 4.55009 8.94248
7 Ar 0.0660621 8.95964 0.0588255
8 Ar -0.301628 8.85856 4.38998
9 Ar 0.0518407 8.88107 8.86515
10 Ar 4.42968 0.0246946 -0.0317664
11 Ar 4.4234 -0.0382084 4.4568
12 Ar 4.35758 -0.100319 8.97591
13 Ar 4.49627 4.32739 -0.0283013
14 Ar 4.49033 4.39205 4.61373
15 Ar 4.40453 4.30939 8.78068
16 Ar 4.48374 9.0548 -0.0681552
17 Ar 4.19834 8.80526 4.48983
18 Ar 4.25586 8.87527 8.8845
19 Ar 8.73479 -0.0972882 0.16508
20 Ar 8.87174 0.152537 4.3367
21 Ar 8.95419 -0.0671471 8.86283
22 Ar 8.89296 4.60924 -0.0724381
23 Ar 8.90281 4.37534 4.44913
24 Ar 8.95656 4.69058 8.96288
25 Ar 8.71495 8.90616 0.0780788
26 Ar 8.96977 8.69652 4.47817
27 Ar 8.88921 9.02052 8.87386
28 Ar -0.0306013 2.24484 2.00612
29 Ar 0.120769 2.33315 6.68827
30 Ar -0.0101032 2.39004 11.1799
31 Ar -0.0154833 6.53026 2.20933
32 Ar -0.0877109 6.4684 6.72275
33 Ar 0.0364278 6.7855 11.1947
34 Ar -0.0454584 11.2633 2.22865
35 Ar 0.0196256 11.0978 6.67412
36 Ar 0.107669 10.9792 11.1234
37 Ar 4.4106 2.0858 2.27071
38 Ar 4.52991 2.12985 6.62942
39 Ar 4.58041 2.27667 10.9581
40 Ar 4.48392 6.77441 2.06971
41 Ar 4.57556 6.67521 6.63009
42 Ar 4.55362 6.58398 10.857
43 Ar 4.2339 11.1063 2.41315
44 Ar 4.38987 10.959 6.61133
45 Ar 4.58467 11.0865 11.172
46 Ar 8.9236 2.34911 2.23476
47 Ar 8.83836 2.0988 6.44878
48 Ar 8.84449 2.26502 10.9774
49 Ar 8.70974 6.56316 2.15892
50 Ar 8.8749 6.78957 6.77596
51 Ar 9.10991 6.81506 11.3069
52 Ar 8.95493 11.0251 2.30653
53 Ar 9.02062 11.2464 6.45997
54 Ar 8.79362 11.1492 11.1676
55 Ar 2.18294 0.157051 2.14284
56 Ar 2.16514 0.0836923 6.6574
57 Ar 2.10933 0.152799 10.9989
58 Ar 2.35519 4.48046 2.30462
59 Ar 2.3982 4.49963 6.67257
60 Ar 2.32215 4.56793 11.2389
61 Ar 2.18336 8.93054 2.1894
62 Ar 1.99496 8.70951 6.60336
63 Ar 2.37045 9.00952 11.0909
64 Ar 6.47788 -0.0904562 2.32235
65 Ar 6.5868 -0.181914 6.55028
66 Ar 6.63664 -0.182654 11.118
67 Ar 6.57215 4.45712 2.27047
68 Ar 6.86581 4.39418 6.66311
69 Ar 6.64829 4.34675 11.0251
70 Ar 6.56469 8.97175 2.24127
71 Ar 6.59114 8.95773 6.69773
72 Ar 6.50761 9.03887 10.9942
73 Ar 11.0138 -0.0888773 2.17321
74 Ar 11.202 0.106106 6.56905
75 Ar 11.1444 0.00099164 11.1839
76 Ar 11.0573 4.51303 2.23852
77 Ar 11.1704 4.33174 6.75327
78 Ar 11.1733 4.63483 11.2535
79 Ar 11.0294 8.71623 2.33531
80 Ar 11.1227 8.83194 6.62511
81 Ar 11.2161 9.04001 11.2881
82 Ar 2.11489 2.25064 0.0639214
83 Ar 2.31182 2.30614 4.34816
84 Ar 2.16223 2.37597 8.91234
85 Ar 2.32475 6.83395 0.027716
86 Ar 2.35042 6.52853 4.51788
87 Ar 2.17311 6.60948 8.82598
88 Ar 2.25831 11.1299 -0.0832788
89 Ar 2.20565 11.1344 4.42552
90 Ar 2.25992 10.9478 8.84253
91 Ar 6.66241 2.20556 0.0375151
92 Ar 6.64153 2.06025 4.35118
93 Ar 6.76383 2.06463 8.72883
94 Ar 6.65125 6.66202 -0.155005
95 Ar 6.69809 6.77041 4.55985
96 Ar 6.64963 6.62873 9.06191
97 Ar 6.77879 11.111 0.284429
98 Ar 6.72078 11.0945 4.43519
99 Ar 6.46017 11.016 8.7322
100 Ar 11.1367 2.15773 0.0493789
101 Ar 11.1823 2.31262 4.34434
102 Ar 11.1755 2.23528 8.96534
103 Ar 11.2622 6.80545 0.117876
104 Ar 11.073 6.50097 4.55042
105 Ar 11.3048 6.83151 9.09629
106 Ar 11.1 11.1107 0.0984495
107 Ar 11.2217 11.1797 4.3172
108 Ar 11.2659 11.1737 8.9755
ITEM: TIMESTEP
4010
ITEM: NUMBER OF ATOMS
108
ITEM: BOX BOUNDS pp pp pp
0.0000000000000000e+00 1.3349999400000000e+01
0.0000000000000000e+00 1.3349999400000000e+01
0.0000000000000000e+00 1.3349999400000000e+01
ITEM: ATOMS id element xu yu zu
1 Ar 0.00344457 0.0164681 0.0160697
2 Ar 0.0433505 0.127791 4.54517
3 Ar 0.0461192 0.0899479 8.97494
4 Ar 0.154613 4.48068 0.193684
5 Ar 0.04292 4.39138 4.45063
6 Ar 0.143508 4.53973 8.94746
7 Ar 0.0573569 8.95714 0.0695294
8 Ar -0.291263 8.86189 4.39038
9 Ar 0.0486511 8.87357 8.87685
10 Ar 4.45076 0.00757141 -0.0272513
11 Ar 4.4166 -0.0162552 4.47145
12 Ar 4.33277 -0.0880258 8.98769
13 Ar 4.51332 4.32617 -0.0295531
14 Ar 4.48833 4.36514 4.62547
15 Ar 4.40863 4.3154 8.75182
16 Ar 4.49222 9.05023 -0.0724073
17 Ar 4.18155 8.80023 4.48333
18 Ar 4.25475 8.86901 8.87472
19 Ar 8.74274 -0.0811512 0.161729
20 Ar 8.87603 0.141752 4.33943
21 Ar 8.94526 -0.071033 8.86641
22 Ar 8.88177 4.58972 -0.0704164
23 Ar 8.88143 4.39 4.43688
24 Ar 8.95621 4.69595 8.9706
25 Ar 8.72154 8.89714 0.0833269
26 Ar 8.97811 8.71125 4.47157
27 Ar 8.88433 9.00233 8.8574
28 Ar -0.032457 2.23051 2.00096
29 Ar 0.11138 2.33574 6.68819
30 Ar -0.000374916 2.382 11.2038
31 Ar 0.000189124 6.51089 2.19875
32 Ar -0.0927061 6.45258 6.70171
33 Ar 0.0340668 6.77599 11.1707
34 Ar -0.0445605 11.2706 2.23275
35 Ar 0.0127895 11.0758 6.68174
36 Ar 0.125481 10.9742 11.1127
37 Ar 4.43255 2.06733 2.27651
38 Ar 4.53161 2.10938 6.62306
39 Ar 4.58841 2.27612 10.9595
40 Ar 4.47685 6.77297 2.05971
41 Ar 4.5498 6.6897 6.62721
42 Ar 4.54387 6.59461 10.8465
43 Ar 4.23982 11.0959 2.4198
44 Ar 4.37909 10.9758 6.6127
45 Ar 4.57908 11.0745 11.1971
46 Ar 8.91719 2.35633 2.23001
47 Ar 8.84334 2.09152 6.41417
48 Ar 8.83216 2.27878 10.9848
49 Ar 8.70135 6.57842 2.16974
50 Ar 8.88562 6.79554 6.7868
51 Ar 9.0915 6.83773 11.3033
52 Ar 8.94113 11.0427 2.30112
53 Ar 9.01326 11.2591 6.49821
54 Ar 8.7746 11.1595 11.15
55 Ar 2.17065 0.139642 2.16384
56 Ar 2.17669 0.0936381 6.66417
57 Ar 2.07902 0.157322 11.0081
58 Ar 2.35044 4.49413 2.33003
59 Ar 2.3834 4.49358 6.68082
60 Ar 2.31886 4.57709 11.2303
61 Ar 2.19318 8.911 2.18311
62 Ar 2.01703 8.716 6.61186
63 Ar 2.36449 9.01227 11.0903
64 Ar 6.49283 -0.101375 2.31906
65 Ar 6.60975 -0.181932 6.5579
66 Ar 6.63286 -0.182152 11.1238
67 Ar 6.58171 4.43714 2.27041
68 Ar 6.87196 4.38178 6.65008
69 Ar 6.64276 4.35643 11.0507
70 Ar 6.58071 8.96914 2.24415
71 Ar 6.5765 8.9493 6.68219
72 Ar 6.53184 9.02283 11.0001
73 Ar 11.0115 -0.0653061 2.16715
74 Ar 11.224 0.0994845 6.56652
75 Ar 11.1534 0.0328983 11.1655
76 Ar 11.078 4.51041 2.21167
77 Ar 11.1805 4.3463 6.76832
78 Ar 11.1713 4.6544 11.2451
79 Ar 11.0414 8.70311 2.33479
80 Ar 11.1052 8.83936 6.61728
81 Ar 11.2018 9.0515 11.292
82 Ar 2.11113 2.25063 0.0501712
83 Ar 2.28552 2.30778 4.336
84 Ar 2.14981 2.37135 8.91916
85 Ar 2.30055 6.83831 0.0306736
86 Ar 2.36016 6.51989 4.52706
87 Ar 2.17992 6.6303 8.82721
88 Ar 2.27824 11.1441 -0.0800367
89 Ar 2.21221 11.1477 4.42366
90 Ar 2.25077 10.9371 8.84002
91 Ar 6.66647 2.21301 0.0406839
92 Ar 6.64167 2.04771 4.35228
93 Ar 6.74826 2.05701 8.71591
94 Ar 6.66028 6.65321 -0.14625
95 Ar 6.71084 6.76102 4.55503
96 Ar 6.65561 6.63427 9.0643
97 Ar 6.77837 11.1248 0.291152
98 Ar 6.74106 11.0997 4.43612
99 Ar 6.45477 10.9878 8.75253
100 Ar 11.1433 2.15486 0.0487154
101 Ar 11.1836 2.32049 4.32695
102 Ar 11.1881 2.21044 8.9618
103 Ar 11.2728 6.81644 0.120698
104 Ar 11.0819 6.49469 4.57037
105 Ar 11.294 6.83395 9.08546
106 Ar 11.0973 11.1136 0.0827039
107 Ar 11.2143 11.1746 4.30588
108 Ar 11.2569 11.1791 8.98417
ITEM: TIMESTEP
4020
ITEM: NUMBER OF ATOMS
108
ITEM: BOX BOUNDS pp pp pp
0.0000000000000000e+00 1.3349999400000000e+01
0.0000000000000000e+00 1.3349999400000000e+01
0.0000000000000000e+00 1.3349999400000000e+01
ITEM: ATOMS id element xu yu zu
1 Ar 0.0205841 0.0329708 0.0204743
2 Ar 0.050456 0.125669 4.54876
3 Ar 0.0232472 0.0751265 8.99844
4 Ar 0.185404 4.48466 0.169535
5 Ar 0.0127344 4.42589 4.43366
6 Ar 0.142106 4.52798 8.95378
7 Ar 0.0484429 8.95503 0.0809331
8 Ar -0.275165 8.86406 4.39113
9 Ar 0.0446867 8.86629 8.88873
10 Ar 4.47108 -0.00952113 -0.0234134
11 Ar 4.40796 0.0044771 4.48692
12 Ar 4.30847 -0.0752041 8.99758
13 Ar 4.52916 4.32629 -0.0301077
14 Ar 4.48921 4.33901 4.63435
15 Ar 4.41562 4.32304 8.72377
16 Ar 4.5012 9.0433 -0.0746899
17 Ar 4.16849 8.79621 4.47592
18 Ar 4.25656 8.86115 8.863
19 Ar 8.75256 -0.0623905 0.156276
20 Ar 8.88178 0.127187 4.34078
21 Ar 8.93608 -0.0751301 8.86954
22 Ar 8.87087 4.56713 -0.068077
23 Ar 8.85979 4.40626 4.425
24 Ar 8.95692 4.6987 8.97831
25 Ar 8.73054 8.88832 0.0878454
26 Ar 8.9849 8.72888 4.46466
27 Ar 8.88018 8.98454 8.84201
28 Ar -0.0350742 2.21598 2.0019
29 Ar 0.101078 2.33801 6.68823
30 Ar 0.00843015 2.37425 11.2274
31 Ar 0.0176516 6.49522 2.19174
32 Ar -0.0966064 6.43964 6.67945
33 Ar 0.0338095 6.76631 11.1481
34 Ar -0.0415925 11.2761 2.23648
35 Ar 0.00545257 11.055 6.68881
36 Ar 0.142364 10.9727 11.1023
37 Ar 4.45492 2.0521 2.28043
38 Ar 4.53228 2.08898 6.61794
39 Ar 4.5942 2.2732 10.9626
40 Ar 4.4706 6.77018 2.05198
41 Ar 4.52408 6.70365 6.62717
42 Ar 4.53043 6.60593 10.8413
43 Ar 4.24864 11.086 2.42292
44 Ar 4.36646 10.9945 6.61324
45 Ar 4.57026 11.0659 11.2209
46 Ar 8.90981 2.36228 2.22335
47 Ar 8.85018 2.08569 6.38442
48 Ar 8.82102 2.29135 10.9942
49 Ar 8.6944 6.59497 2.18156
50 Ar 8.89643 6.79939 6.7978
51 Ar 9.07069 6.86103 11.2969
52 Ar 8.92754 11.0599 2.29708
53 Ar 9.0062 11.2698 6.53795
54 Ar 8.75769 11.1687 11.1324
55 Ar 2.1585 0.119159 2.18603
56 Ar 2.18943 0.102103 6.67206
57 Ar 2.05163 0.159912 11.0204
58 Ar 2.34657 4.50759 2.3532
59 Ar 2.36573 4.4859 6.68866
60 Ar 2.3148 4.58518 11.2211
61 Ar 2.20143 8.89116 2.17857
62 Ar 2.03969 8.72366 6.61936
63 Ar 2.35693 9.01129 11.0913
64 Ar 6.50991 -0.111955 2.31439
65 Ar 6.63319 -0.180951 6.56765
66 Ar 6.63001 -0.178361 11.1293
67 Ar 6.59062 4.41713 2.27054
68 Ar 6.87621 4.37025 6.63823
69 Ar 6.63876 4.36708 11.0765
70 Ar 6.59652 8.96441 2.24923
71 Ar 6.56383 8.93958 6.66577
72 Ar 6.55955 9.00379 11.0076
73 Ar 11.0108 -0.0391872 2.16209
74 Ar 11.2452 0.0923793 6.5657
75 Ar 11.1615 0.063914 11.1478
76 Ar 11.0987 4.50767 2.18383
77 Ar 11.1878 4.36067 6.78369
78 Ar 11.1701 4.67087 11.2364
79 Ar 11.0533 8.69178 2.33204
80 Ar 11.0884 8.8484 6.61175
81 Ar 11.1857 9.0623 11.2943
82 Ar 2.11198 2.25074 0.0339534
83 Ar 2.25778 2.30799 4.32604
84 Ar 2.13909 2.36494 8.92615
85 Ar 2.27643 6.84072 0.0317388
86 Ar 2.36655 6.51274 4.53409
87 Ar 2.18811 6.652 8.82965
88 Ar 2.29749 11.16 -0.07532
89 Ar 2.21507 11.1609 4.42379
90 Ar 2.24046 10.931 8.83702
91 Ar 6.67161 2.2198 0.0433361
92 Ar 6.64126 2.03859 4.35422
93 Ar 6.73271 2.05017 8.70413
94 Ar 6.66738 6.64496 -0.137658
95 Ar 6.72236 6.75013 4.5482
96 Ar 6.66449 6.6412 9.0623
97 Ar 6.77412 11.1387 0.293983
98 Ar 6.76031 11.103 4.43688
99 Ar 6.45235 10.9628 8.77412
100 Ar 11.1471 2.1539 0.0459173
101 Ar 11.1853 2.32708 4.31028
102 Ar 11.1995 2.18678 8.9577
103 Ar 11.2815 6.82581 0.12199
104 Ar 11.0906 6.48834 4.58902
105 Ar 11.2802 6.83534 9.07225
106 Ar 11.0943 11.1162 0.0661406
107 Ar 11.2053 11.1699 4.29732
108 Ar 11.2464 11.1838 8.99146
ITEM: TIMESTEP
4030
ITEM: NUMBER OF ATOMS
108
ITEM: BOX BOUNDS pp pp pp
0.0000000000000000e+00 1.3349999400000000e+01
0.0000000000000000e+00 1.3349999400000000e+01
0.0000000000000000e+00 1.3349999400000000e+01
ITEM: ATOMS id element xu yu zu
1 Ar 0.0369615 0.0468914 0.0226863
2 Ar 0.0574392 0.122886 4.54963
3 Ar -0.000222152 0.0589793 9.01913
4 Ar 0.214137 4.48966 0.141442
5 Ar -0.0168865 4.45978 4.41607
6 Ar 0.137719 4.51528 8.96128
7 Ar 0.0395155 8.95366 0.0927237
8 Ar -0.253582 8.865 4.39225
9 Ar 0.0398201 8.85924 8.90041
10 Ar 4.49029 -0.0261235 -0.0200776
11 Ar 4.39785 0.0233673 4.50269
12 Ar 4.285 -0.0623383 9.00578
13 Ar 4.5432 4.3278 -0.0298401
14 Ar 4.49279 4.31397 4.64046
15 Ar 4.42546 4.33205 8.69701
16 Ar 4.5106 9.0338 -0.0748761
17 Ar 4.15945 8.79342 4.46765
18 Ar 4.26132 8.8522 8.84977
19 Ar 8.76412 -0.0413268 0.14856
20 Ar 8.88907 0.108948 4.34061
21 Ar 8.9267 -0.0789787 8.87231
22 Ar 8.86064 4.54222 -0.0654581
23 Ar 8.83863 4.42387 4.41347
24 Ar 8.95853 4.69867 8.98596
25 Ar 8.74177 8.88023 0.0917662
26 Ar 8.99006 8.74913 4.45763
27 Ar 8.87677 8.96755 8.82795
28 Ar -0.0381459 2.20189 2.00868
29 Ar 0.0899898 2.33998 6.68819
30 Ar 0.0159083 2.36723 11.2503
31 Ar 0.0365481 6.48365 2.18829
32 Ar -0.098872 6.43016 6.6568
33 Ar 0.0354782 6.75681 11.1274
34 Ar -0.0368276 11.2797 2.23969
35 Ar -0.00228084 11.0355 6.69522
36 Ar 0.157885 10.9745 11.0928
37 Ar 4.4769 2.04018 2.28231
38 Ar 4.53183 2.06907 6.61432
39 Ar 4.59766 2.26818 10.9675
40 Ar 4.46544 6.76596 2.04654
41 Ar 4.49897 6.7166 6.62969
42 Ar 4.51376 6.61775 10.8414
43 Ar 4.26038 11.0767 2.42274
44 Ar 4.35252 11.0149 6.61305
45 Ar 4.5588 11.0605 11.2429
46 Ar 8.90171 2.36684 2.21513
47 Ar 8.85904 2.08156 6.35999
48 Ar 8.8112 2.30258 11.0053
49 Ar 8.68921 6.61227 2.19401
50 Ar 8.90704 6.80092 6.80845
51 Ar 9.04791 6.88428 11.2878
52 Ar 8.91474 11.0767 2.29417
53 Ar 8.99969 11.2783 6.57867
54 Ar 8.74315 11.1765 11.115
55 Ar 2.14709 0.0962268 2.20889
56 Ar 2.20266 0.108978 6.68113
57 Ar 2.02776 0.160424 11.0355
58 Ar 2.34386 4.52031 2.37361
59 Ar 2.34532 4.47663 6.69587
60 Ar 2.31038 4.59209 11.2114
61 Ar 2.20794 8.87154 2.17585
62 Ar 2.06235 8.73236 6.62576
63 Ar 2.34804 9.00656 11.0939
64 Ar 6.52882 -0.121918 2.30879
65 Ar 6.6566 -0.179206 6.57946
66 Ar 6.62789 -0.171294 11.1343
67 Ar 6.5986 4.39751 2.27091
68 Ar 6.87858 4.35979 6.62783
69 Ar 6.63619 4.37872 11.1017
70 Ar 6.61181 8.95774 2.25638
71 Ar 6.55315 8.92892 6.64856
72 Ar 6.59002 8.98216 11.0169
73 Ar 11.0117 -0.0112215 2.15809
74 Ar 11.2654 0.0847995 6.56651
75 Ar 11.1686 0.0935089 11.1314
76 Ar 11.1191 4.50497 2.15527
77 Ar 11.1919 4.37433 6.79934
78 Ar 11.1695 4.68407 11.2277
79 Ar 11.0648 8.68244 2.32736
80 Ar 11.0727 8.85907 6.60849
81 Ar 11.1681 9.07222 11.2948
82 Ar 2.11796 2.25083 0.016127
83 Ar 2.22884 2.30698 4.3183
84 Ar 2.13026 2.35683 8.93331
85 Ar 2.25286 6.84115 0.0306789
86 Ar 2.36951 6.5071 4.53907
87 Ar 2.19714 6.6739 8.83307
88 Ar 2.31556 11.1772 -0.0690575
89 Ar 2.21423 11.1739 4.4259
90 Ar 2.22929 10.9297 8.83359
91 Ar 6.67769 2.22564 0.0454038
92 Ar 6.64052 2.03275 4.35693
93 Ar 6.71755 2.04429 8.69371
94 Ar 6.67243 6.6374 -0.129163
95 Ar 6.73227 6.7379 4.53975
96 Ar 6.67582 6.64919 9.05603
97 Ar 6.76642 11.1523 0.292715
98 Ar 6.77814 11.1046 4.43775
99 Ar 6.45253 10.9412 8.7965
100 Ar 11.1479 2.15504 0.040905
101 Ar 11.1872 2.3325 4.2946
102 Ar 11.2095 2.1649 8.95299
103 Ar 11.2879 6.83321 0.121394
104 Ar 11.0988 6.48219 4.60579
105 Ar 11.2635 6.83578 9.05678
106 Ar 11.0912 11.1192 0.0491366
107 Ar 11.1948 11.1657 4.29155
108 Ar 11.2344 11.1878 8.99741
ITEM: TIMESTEP
4040
ITEM: NUMBER OF ATOMS
108
ITEM: BOX BOUNDS pp pp pp
0.0000000000000000e+00 1.3349999400000000e+01
0.0000000000000000e+00 1.3349999400000000e+01
0.0000000000000000e+00 1.3349999400000000e+01
ITEM: ATOMS id element xu yu zu
1 Ar 0.0521449 0.0577585 0.0227922
2 Ar 0.0640832 0.119345 4.54801
3 Ar -0.0235897 0.0416412 9.03652
4 Ar 0.240435 4.49545 0.11011
5 Ar -0.045453 4.4921 4.39816
6 Ar 0.130492 4.50207 8.96977
7 Ar 0.030747 8.95334 0.104576
8 Ar -0.226931 8.86473 4.39375
9 Ar 0.0339514 8.85244 8.91155
10 Ar 4.50812 -0.0417519 -0.0170462
11 Ar 4.38669 0.0398585 4.51815
12 Ar 4.26269 -0.0498668 9.01249
13 Ar 4.5549 4.33067 -0.0286527
14 Ar 4.49877 4.29035 4.64395
15 Ar 4.438 4.34219 8.67198
16 Ar 4.52034 9.02164 -0.0729239
17 Ar 4.15464 8.792 4.45861
18 Ar 4.26902 8.84271 8.83553
19 Ar 8.77729 -0.0183836 0.138469
20 Ar 8.8979 0.0873149 4.33892
21 Ar 8.91717 -0.0820987 8.87484
22 Ar 8.85145 4.51581 -0.0625906
23 Ar 8.81865 4.44249 4.40227
24 Ar 8.96081 4.69569 8.99352
25 Ar 8.755 8.87332 0.0952604
26 Ar 8.99357 8.77165 4.45067
27 Ar 8.87409 8.95179 8.81545
28 Ar -0.0413106 2.18885 2.02078
29 Ar 0.0782327 2.34162 6.68791
30 Ar 0.021707 2.36125 11.2718
31 Ar 0.0564516 6.47648 2.18817
32 Ar -0.0990187 6.42462 6.6346
33 Ar 0.0388052 6.74776 11.1086
34 Ar -0.0306355 11.2814 2.2422
35 Ar -0.010323 11.0175 6.70088
36 Ar 0.171628 10.9796 11.0845
37 Ar 4.49773 2.03151 2.28207
38 Ar 4.53022 2.05012 6.61247
39 Ar 4.59877 2.26142 10.9739
40 Ar 4.46155 6.76024 2.04339
41 Ar 4.47499 6.7281 6.63443
42 Ar 4.49457 6.62988 10.8466
43 Ar 4.27488 11.0682 2.41958
44 Ar 4.33791 11.0368 6.61226
45 Ar 4.54534 11.0582 11.2622
46 Ar 8.89316 2.36988 2.20574
47 Ar 8.87005 2.0793 6.34117
48 Ar 8.80279 2.3123 11.0176
49 Ar 8.68607 6.62979 2.20669
50 Ar 8.91714 6.79992 6.81822
51 Ar 9.02368 6.9068 11.2763
52 Ar 8.90325 11.0928 2.29199
53 Ar 8.99392 11.2844 6.61986
54 Ar 8.73121 11.1829 11.0981
55 Ar 2.13699 0.0715183 2.23193
56 Ar 2.21565 0.114195 6.69137
57 Ar 2.00795 0.158749 11.0533
58 Ar 2.3425 4.53176 2.39079
59 Ar 2.32243 4.46585 6.70227
60 Ar 2.30602 4.59771 11.201
61 Ar 2.21266 8.85262 2.17492
62 Ar 2.08446 8.74206 6.63099
63 Ar 2.3381 8.99823 11.0982
64 Ar 6.54923 -0.130938 2.30272
65 Ar 6.67949 -0.176908 6.59313
66 Ar 6.62633 -0.161036 11.1384
67 Ar 6.60542 4.37874 2.27151
68 Ar 6.87911 4.35054 6.61914
69 Ar 6.63488 4.39141 11.1258
70 Ar 6.62631 8.94933 2.26538
71 Ar 6.54444 8.91768 6.63071
72 Ar 6.62244 8.95846 11.0279
73 Ar 11.0143 0.0178442 2.15515
74 Ar 11.2843 0.0767453 6.56885
75 Ar 11.1742 0.12117 11.1168
76 Ar 11.1385 4.50244 2.12622
77 Ar 11.1926 4.38682 6.8152
78 Ar 11.1692 4.69394 11.2192
79 Ar 11.0759 8.67531 2.32119
80 Ar 11.0585 8.87133 6.60735
81 Ar 11.1495 9.08108 11.2932
82 Ar 2.1294 2.25077 -0.00241146
83 Ar 2.19901 2.30499 4.31277
84 Ar 2.12342 2.34713 8.94063
85 Ar 2.23029 6.83963 0.0273468
86 Ar 2.36905 6.503 4.54218
87 Ar 2.20643 6.69531 8.83724
88 Ar 2.33202 11.195 -0.0611943
89 Ar 2.20983 11.1864 4.42989
90 Ar 2.21762 10.933 8.82984
91 Ar 6.68446 2.23022 0.0468103
92 Ar 6.63975 2.02995 4.36038
93 Ar 6.70313 2.03953 8.68493
94 Ar 6.67542 6.63065 -0.12065
95 Ar 6.74018 6.72455 4.53006
96 Ar 6.68897 6.6579 9.04574
97 Ar 6.75571 11.165 0.287223
98 Ar 6.79424 11.1044 4.439
99 Ar 6.45494 10.9234 8.81918
100 Ar 11.146 2.15845 0.0336746
101 Ar 11.1893 2.33686 4.2802
102 Ar 11.2176 2.14537 8.94758
103 Ar 11.2921 6.83832 0.11861
104 Ar 11.1057 6.47667 4.62014
105 Ar 11.2444 6.83535 9.03925
106 Ar 11.088 11.1229 0.0320783
107 Ar 11.1828 11.162 4.2885
108 Ar 11.2211 11.1907 9.00209
ITEM: TIMESTEP
4050
ITEM: NUMBER OF ATOMS
108
ITEM: BOX BOUNDS pp pp pp
0.0000000000000000e+00 1.3349999400000000e+01
0.0000000000000000e+00 1.3349999400000000e+01
0.0000000000000000e+00 1.3349999400000000e+01
ITEM: ATOMS id element xu yu zu
1 Ar 0.0657276 0.0652721 0.0210155
2 Ar 0.0701301 0.114955 4.54419
3 Ar -0.0461064 0.0232818 9.05024
4 Ar 0.26394 4.50181 0.0763865
5 Ar -0.0724883 4.5219 4.38018
6 Ar 0.120603 4.48875 8.97902
7 Ar 0.0222831 8.95433 0.116163
8 Ar -0.195768 8.86331 4.39558
9 Ar 0.0270133 8.84596 8.92184
10 Ar 4.52434 -0.0559119 -0.0141118
11 Ar 4.37487 0.0534862 4.53269
12 Ar 4.24182 -0.0381792 9.01793
13 Ar 4.56384 4.33488 -0.0264787
14 Ar 4.50672 4.26846 4.64501
15 Ar 4.45302 4.3532 8.64905
16 Ar 4.53029 9.00681 -0.0688844
17 Ar 4.15417 8.79205 4.44891
18 Ar 4.27958 8.83334 8.82082
19 Ar 8.79188 0.00592971 0.125945
20 Ar 8.9082 0.0627389 4.3359
21 Ar 8.90759 -0.0840053 8.87732
22 Ar 8.84362 4.48874 -0.0594972
23 Ar 8.8005 4.46171 4.39143
24 Ar 8.96352 4.68964 9.00094
25 Ar 8.76998 8.868 0.0985202
26 Ar 8.99544 8.79602 4.44401
27 Ar 8.8721 8.93765 8.80468
28 Ar -0.0441804 2.17738 2.03748
29 Ar 0.0659103 2.34288 6.68727
30 Ar 0.0255507 2.35658 11.2915
31 Ar 0.0768833 6.47388 2.19099
32 Ar -0.0966642 6.42338 6.61372
33 Ar 0.0434457 6.73941 11.092
34 Ar -0.0234604 11.281 2.24393
35 Ar -0.0185982 11.0013 6.70571
36 Ar 0.183217 10.9875 11.0778
37 Ar 4.51675 2.02594 2.27969
38 Ar 4.52742 2.0326 6.61263
39 Ar 4.59755 2.25335 10.9818
40 Ar 4.45906 6.753 2.0425
41 Ar 4.45257 6.7377 6.64097
42 Ar 4.47365 6.64216 10.8566
43 Ar 4.2919 11.0607 2.41384
44 Ar 4.32324 11.0599 6.61105
45 Ar 4.53048 11.0585 11.2783
46 Ar 8.88448 2.37133 2.19567
47 Ar 8.88328 2.07901 6.32803
48 Ar 8.79586 2.32036 11.0306
49 Ar 8.68525 6.64702 2.21919
50 Ar 8.92651 6.79626 6.82655
51 Ar 8.99853 6.92787 11.2628
52 Ar 8.89349 11.108 2.29008
53 Ar 8.98903 11.2878 6.66097
54 Ar 8.72198 11.1877 11.0822
55 Ar 2.12871 0.0457302 2.25461
56 Ar 2.22764 0.117727 6.70273
57 Ar 1.9926 0.154825 11.0731
58 Ar 2.34263 4.54144 2.40439
59 Ar 2.29742 4.4537 6.70773
60 Ar 2.30215 4.60188 11.1899
61 Ar 2.21558 8.83486 2.17576
62 Ar 2.10552 8.75271 6.635
63 Ar 2.32742 8.98659 11.104
64 Ar 6.57082 -0.13867 2.29662
65 Ar 6.70138 -0.174238 6.60836
66 Ar 6.62522 -0.147745 11.1417
67 Ar 6.61088 4.36127 2.2723
68 Ar 6.87793 4.3426 6.61236
69 Ar 6.63466 4.40511 11.1479
70 Ar 6.63977 8.9395 2.27592
71 Ar 6.53765 8.90625 6.6124
72 Ar 6.65592 8.93328 11.0407
73 Ar 11.0185 0.0472494 2.15327
74 Ar 11.3015 0.0682114 6.57259
75 Ar 11.178 0.146414 11.1047
76 Ar 11.1567 4.50017 2.09689
77 Ar 11.1896 4.39779 6.83116
78 Ar 11.1691 4.7005 11.211
79 Ar 11.0869 8.67054 2.31397
80 Ar 11.0462 8.88508 6.60813
81 Ar 11.1302 9.08869 11.2896
82 Ar 2.14645 2.25048 -0.0207834
83 Ar 2.16866 2.30231 4.30941
84 Ar 2.11864 2.336 8.9481
85 Ar 2.20922 6.83624 0.0216942
86 Ar 2.36531 6.50044 4.54363
87 Ar 2.21542 6.71555 8.84192
88 Ar 2.34645 11.2131 -0.0516924
89 Ar 2.20217 11.198 4.43563
90 Ar 2.2058 10.9406 8.82592
91 Ar 6.69165 2.23329 0.0474732
92 Ar 6.63927 2.02982 4.36455
93 Ar 6.68972 2.03605 8.67802
94 Ar 6.67646 6.62481 -0.111963
95 Ar 6.74574 6.71034 4.51956
96 Ar 6.70324 6.66701 9.0318
97 Ar 6.7426 11.1761 0.277481
98 Ar 6.80826 11.1027 4.44093
99 Ar 6.45917 10.9094 8.84175
100 Ar 11.1415 2.16421 0.0243013
101 Ar 11.1913 2.34033 4.26735
102 Ar 11.2237 2.12872 8.94138
103 Ar 11.2938 6.84087 0.11341
104 Ar 11.1108 6.47226 4.63164
105 Ar 11.2234 6.83416 9.01995
106 Ar 11.0848 11.1277 0.015337
107 Ar 11.1697 11.1589 4.28806
108 Ar 11.2064 11.1925 9.00559
ITEM: TIMESTEP
4060
ITEM: NUMBER OF ATOMS
108
ITEM: BOX BOUNDS pp pp pp
0.0000000000000000e+00 1.3349999400000000e+01
0.0000000000000000e+00 1.3349999400000000e+01
0.0000000000000000e+00 1.3349999400000000e+01
ITEM: ATOMS id element xu yu zu
1 Ar 0.0773382 0.0693175 0.0177094
2 Ar 0.075281 0.109636 4.53853
3 Ar -0.0670196 0.00411067 9.06004
4 Ar 0.284313 4.50854 0.0412214
5 Ar -0.0975463 4.54828 4.36244
6 Ar 0.10826 4.47566 8.98879
7 Ar 0.0142404 8.95682 0.127159
8 Ar -0.160752 8.86081 4.39772
9 Ar 0.0189742 8.83986 8.93104
10 Ar 4.53873 -0.0681182 -0.0110711
11 Ar 4.3628 0.0639043 4.54567
12 Ar 4.22272 -0.0276149 9.02235
13 Ar 4.56968 4.34036 -0.0232882
14 Ar 4.51613 4.24858 4.64387
15 Ar 4.4702 4.36486 8.62854
16 Ar 4.54031 8.98945 -0.0629003
17 Ar 4.15805 8.79362 4.4387
18 Ar 4.29287 8.8247 8.80619
19 Ar 8.80768 0.0310404 0.110991
20 Ar 8.91982 0.0358322 4.33188
21 Ar 8.89806 -0.0842279 8.87996
22 Ar 8.83739 4.46185 -0.0561934
23 Ar 8.78479 4.48104 4.38099
24 Ar 8.9664 4.68042 9.00821
25 Ar 8.78644 8.86458 0.10174
26 Ar 8.99575 8.8218 4.43786
27 Ar 8.87074 8.92549 8.79579
28 Ar -0.0463677 2.1679 2.05789
29 Ar 0.0531067 2.34372 6.68615
30 Ar 0.0272671 2.35334 11.3088
31 Ar 0.0973368 6.47593 2.19624
32 Ar -0.0915714 6.42664 6.59492
33 Ar 0.0489943 6.73199 11.0775
34 Ar -0.0157944 11.2785 2.2448
35 Ar -0.027037 10.987 6.70968
36 Ar 0.192331 10.998 11.0731
37 Ar 4.53339 2.02324 2.27521
38 Ar 4.52349 2.01701 6.61502
39 Ar 4.59411 2.24438 10.991
40 Ar 4.45802 6.74423 2.04386
41 Ar 4.43207 6.74499 6.64881
42 Ar 4.45187 6.65445 10.8709
43 Ar 4.31112 11.054 2.40594
44 Ar 4.30914 11.0839 6.6096
45 Ar 4.51478 11.061 11.2907
46 Ar 8.87595 2.37111 2.18545
47 Ar 8.8987 2.08067 6.32048
48 Ar 8.79043 2.32666 11.0438
49 Ar 8.68697 6.6635 2.23111
50 Ar 8.9349 6.78986 6.83287
51 Ar 8.97309 6.94671 11.2475
52 Ar 8.88579 11.1222 2.28791
53 Ar 8.98509 11.2884 6.70141
54 Ar 8.71552 11.1911 11.0674
55 Ar 2.12273 0.0195664 2.27645
56 Ar 2.2379 0.119583 6.7151
57 Ar 1.98201 0.148652 11.0946
58 Ar 2.34432 4.54888 2.4141
59 Ar 2.27077 4.44036 6.71217
60 Ar 2.29916 4.60446 11.178
61 Ar 2.21679 8.81866 2.17824
62 Ar 2.12508 8.76431 6.63777
63 Ar 2.31624 8.9721 11.1113
64 Ar 6.59325 -0.144782 2.29089
65 Ar 6.72183 -0.171343 6.6248
66 Ar 6.62447 -0.131648 11.1438
67 Ar 6.61484 4.3455 2.27322
68 Ar 6.87518 4.33603 6.60763
69 Ar 6.63532 4.41977 11.1677
70 Ar 6.65201 8.92857 2.28768
71 Ar 6.53277 8.895 6.59382
72 Ar 6.68952 8.9073 11.0554
73 Ar 11.0244 0.0762508 2.15238
74 Ar 11.3167 0.0591905 6.57756
75 Ar 11.1799 0.168802 11.0954
76 Ar 11.1735 4.49827 2.06749
77 Ar 11.1831 4.40702 6.84707
78 Ar 11.1689 4.70382 11.2033
79 Ar 11.0975 8.66823 2.30619
80 Ar 11.036 8.90016 6.61057
81 Ar 11.1107 9.09489 11.2837
82 Ar 2.169 2.24991 -0.038181
83 Ar 2.13824 2.29921 4.30814
84 Ar 2.11587 2.32362 8.95573
85 Ar 2.19011 6.83114 0.0137805
86 Ar 2.35851 6.49944 4.54369
87 Ar 2.22362 6.73401 8.84684
88 Ar 2.3585 11.2307 -0.0405343
89 Ar 2.19165 11.2084 4.44292
90 Ar 2.19417 10.9521 8.82202
91 Ar 6.6989 2.23469 0.0473087
92 Ar 6.63942 2.03191 4.36944
93 Ar 6.67759 2.03402 8.67324
94 Ar 6.67571 6.61995 -0.102919
95 Ar 6.74863 6.69556 4.50863
96 Ar 6.71786 6.67616 9.01466
97 Ar 6.72773 11.1853 0.263561
98 Ar 6.81991 11.0997 4.4438
99 Ar 6.46483 10.8991 8.86381
100 Ar 11.1347 2.17238 0.0129385
101 Ar 11.1929 2.34306 4.25631
102 Ar 11.2274 2.11541 8.93429
103 Ar 11.2932 6.8407 0.105646
104 Ar 11.1134 6.46946 4.63992
105 Ar 11.2008 6.83227 8.99925
106 Ar 11.0816 11.1339 -0.000752879
107 Ar 11.1558 11.1562 4.29007
108 Ar 11.1907 11.1929 9.00804
ITEM: TIMESTEP
4070
ITEM: NUMBER OF ATOMS
108
ITEM: BOX BOUNDS pp pp pp
0.0000000000000000e+00 1.3349999400000000e+01
0.0000000000000000e+00 1.3349999400000000e+01
0.0000000000000000e+00 1.3349999400000000e+01
ITEM: ATOMS id element xu yu zu
1 Ar 0.0866483 0.0699627 0.0133329
2 Ar 0.0792033 0.103321 4.53144
3 Ar -0.0856298 -0.0156179 9.0658
4 Ar 0.301252 4.51543 0.00561149
5 Ar -0.120234 4.57046 4.3452
6 Ar 0.0937018 4.46306 8.99881
7 Ar 0.00670712 8.96093 0.137243
8 Ar -0.122621 8.85735 4.40011
9 Ar 0.00984094 8.83428 8.93895
10 Ar 4.55116 -0.07792 -0.00773693
11 Ar 4.35086 0.0709049 4.55647
12 Ar 4.20567 -0.0184632 9.02598
13 Ar 4.5722 4.34702 -0.0190954
14 Ar 4.52643 4.23096 4.64077
15 Ar 4.48914 4.37695 8.61071
16 Ar 4.55023 8.96981 -0.0551928
17 Ar 4.16618 8.79669 4.42816
18 Ar 4.30871 8.81741 8.79218
19 Ar 8.82448 0.0563357 0.0936714
20 Ar 8.93259 0.007335 4.32733
21 Ar 8.88871 -0.0823322 8.88299
22 Ar 8.83295 4.43598 -0.0526914
23 Ar 8.77205 4.49998 4.37104
24 Ar 8.96916 4.668 9.01531
25 Ar 8.8041 8.86328 0.105094
26 Ar 8.9946 8.84849 4.43242
27 Ar 8.86992 8.91563 8.78884
28 Ar -0.047507 2.16072 2.08097
29 Ar 0.0398825 2.34406 6.68451
30 Ar 0.026809 2.35154 11.3233
31 Ar 0.117302 6.48259 2.2033
32 Ar -0.0836805 6.43444 6.57885
33 Ar 0.0550049 6.72565 11.0653
34 Ar -0.00814854 11.2739 2.24479
35 Ar -0.0355708 10.9746 6.71275
36 Ar 0.198716 11.0105 11.0706
37 Ar 4.54718 2.02313 2.26874
38 Ar 4.5185 2.00381 6.61978
39 Ar 4.58858 2.23497 11.0013
40 Ar 4.45843 6.73396 2.04742
41 Ar 4.41375 6.74964 6.65741
42 Ar 4.43009 6.66662 10.8892
43 Ar 4.33215 11.0484 2.39634
44 Ar 4.29617 11.1084 6.60811
45 Ar 4.49867 11.0654 11.299
46 Ar 8.86787 2.36917 2.17562
47 Ar 8.91624 2.08418 6.31826
48 Ar 8.78652 2.33109 11.0569
49 Ar 8.69144 6.67881 2.24208
50 Ar 8.94214 6.78073 6.83668
51 Ar 8.94805 6.96258 11.2307
52 Ar 8.88036 11.1352 2.28491
53 Ar 8.98212 11.286 6.74063
54 Ar 8.71182 11.193 11.0541
55 Ar 2.11946 -0.00627942 2.29696
56 Ar 2.24569 0.119816 6.72829
57 Ar 1.97635 0.140305 11.117
58 Ar 2.34759 4.55365 2.41975
59 Ar 2.243 4.42603 6.71555
60 Ar 2.29742 4.60531 11.1649
61 Ar 2.21646 8.80436 2.18221
62 Ar 2.14284 8.77686 6.6393
63 Ar 2.30481 8.95532 11.1198
64 Ar 6.6162 -0.148981 2.28582
65 Ar 6.74047 -0.168335 6.64203
66 Ar 6.62404 -0.11304 11.1448
67 Ar 6.61722 4.33181 2.27414
68 Ar 6.87109 4.33085 6.60503
69 Ar 6.63664 4.43529 11.1844
70 Ar 6.66288 8.91692 2.30027
71 Ar 6.52974 8.88425 6.57518
72 Ar 6.72225 8.88125 11.0717
73 Ar 11.0319 0.104148 2.15235
74 Ar 11.3298 0.0496774 6.58356
75 Ar 11.1795 0.187962 11.0895
76 Ar 11.1885 4.49679 2.03822
77 Ar 11.1731 4.41439 6.86268
78 Ar 11.1685 4.70407 11.1963
79 Ar 11.1081 8.66846 2.29832
80 Ar 11.0282 8.91634 6.61435
81 Ar 11.0913 9.09953 11.2757
82 Ar 2.19678 2.24904 -0.0539103
83 Ar 2.10825 2.29599 4.30891
84 Ar 2.11499 2.31024 8.96351
85 Ar 2.17338 6.82455 0.00377827
86 Ar 2.34901 6.49998 4.54263
87 Ar 2.23057 6.75018 8.85176
88 Ar 2.36789 11.2475 -0.0277286
89 Ar 2.17875 11.2171 4.45158
90 Ar 2.18304 10.9671 8.81833
91 Ar 6.70583 2.23427 0.0462386
92 Ar 6.64052 2.03574 4.37509
93 Ar 6.66691 2.03357 8.67082
94 Ar 6.67347 6.61612 -0.0933197
95 Ar 6.74857 6.6805 4.49766
96 Ar 6.73208 6.68505 8.99477
97 Ar 6.71182 11.192 0.245637
98 Ar 6.82893 11.0955 4.44784
99 Ar 6.47154 10.8926 8.88503
100 Ar 11.126 2.18293 -0.000188299
101 Ar 11.1941 2.34526 4.24733
102 Ar 11.2287 2.10575 8.92626
103 Ar 11.2904 6.83776 0.0952587
104 Ar 11.1129 6.46879 4.64478
105 Ar 11.1774 6.82975 8.97756
106 Ar 11.0785 11.1417 -0.0159103
107 Ar 11.1417 11.1539 4.29431
108 Ar 11.174 11.1919 9.00955
ITEM: TIMESTEP
4080
ITEM: NUMBER OF ATOMS
108
ITEM: BOX BOUNDS pp pp pp
0.0000000000000000e+00 1.3349999400000000e+01
0.0000000000000000e+00 1.3349999400000000e+01
0.0000000000000000e+00 1.3349999400000000e+01
ITEM: ATOMS id element xu yu zu
1 Ar 0.0933815 0.0674401 0.0084126
2 Ar 0.0815465 0.0959568 4.52334
3 Ar -0.101348 -0.0356018 9.06754
4 Ar 0.3145 4.52228 -0.0294486
5 Ar -0.140236 4.58777 4.32878
6 Ar 0.0771921 4.45115 9.00881
7 Ar -0.000256733 8.96667 0.146103
8 Ar -0.0821615 8.85306 4.40269
9 Ar -0.000339316 8.82934 8.94545
10 Ar 4.5615 -0.0849314 -0.00395094
11 Ar 4.3394 0.0744331 4.56459
12 Ar 4.19099 -0.0109621 9.02905
13 Ar 4.57132 4.35474 -0.0139643
14 Ar 4.53704 4.21578 4.63595
15 Ar 4.50939 4.3893 8.5958
16 Ar 4.55986 8.94825 -0.046039
17 Ar 4.17837 8.80118 4.41749
18 Ar 4.32689 8.81198 8.77933
19 Ar 8.84204 0.081187 0.0741144
20 Ar 8.94629 -0.0219278 4.32283
21 Ar 8.87968 -0.0779455 8.88664
22 Ar 8.83041 4.4119 -0.0490037
23 Ar 8.7627 4.51797 4.36168
24 Ar 8.9715 4.6524 9.02224
25 Ar 8.82267 8.8642 0.10872
26 Ar 8.99214 8.87561 4.42789
27 Ar 8.86954 8.90829 8.78383
28 Ar -0.047272 2.15604 2.10566
29 Ar 0.0262721 2.3438 6.68231
30 Ar 0.0242651 2.35103 11.3347
31 Ar 0.136289 6.49371 2.21152
32 Ar -0.073124 6.44667 6.56603
33 Ar 0.0610116 6.72053 11.0553
34 Ar -0.00102239 11.267 2.2439
35 Ar -0.0441261 10.9644 6.71492
36 Ar 0.202191 11.0246 11.0705
37 Ar 4.55781 2.02528 2.2605
38 Ar 4.51252 1.99339 6.62696
39 Ar 4.58114 2.22556 11.0127
40 Ar 4.46021 6.72226 2.05317