ITEM: TIMESTEP
72000
ITEM: NUMBER OF ATOMS
108
ITEM: BOX BOUNDS pp pp pp
0.0000000000000000e+00 1.3349999400000000e+01
0.0000000000000000e+00 1.3349999400000000e+01
0.0000000000000000e+00 1.3349999400000000e+01
ITEM: ATOMS id element xu yu zu
1 Ar -0.028569 -0.192073 0.0415051
2 Ar -0.0581734 -0.041461 4.40627
3 Ar 0.0262324 0.116518 8.77319
4 Ar -0.129987 4.39678 0.0984563
5 Ar -0.0199682 4.4144 4.35225
6 Ar -0.0559083 4.58284 8.86229
7 Ar -0.0230057 8.88162 -0.0242368
8 Ar -0.193439 9.06067 4.55708
9 Ar 0.10152 8.71274 8.94974
10 Ar 4.30839 0.18351 0.102514
11 Ar 4.33849 0.0420692 4.35069
12 Ar 4.49625 -0.0848865 8.7155
13 Ar 4.57058 4.39168 -0.0258115
14 Ar 4.54985 4.6868 4.34481
15 Ar 4.55186 4.3897 8.95171
16 Ar 4.46947 8.78424 -0.0168462
17 Ar 4.59992 8.97333 4.48659
18 Ar 4.20263 8.9589 8.89237
19 Ar 8.6891 0.0721136 -0.187751
20 Ar 8.90081 0.169524 4.47218
21 Ar 8.93924 -0.204274 8.85544
22 Ar 8.78096 4.50608 0.128014
23 Ar 8.82376 4.43341 4.36797
24 Ar 8.91326 4.43379 8.9899
25 Ar 8.70292 9.11717 0.268554
26 Ar 9.06537 8.96266 4.34675
27 Ar 8.93532 8.94289 8.87244
28 Ar -0.0022176 2.16506 2.40374
29 Ar 0.0438433 2.17537 6.79851
30 Ar -0.0467386 2.23111 10.9742
31 Ar -0.028212 6.57318 2.11533
32 Ar -0.251065 6.78047 6.57136
33 Ar 0.215623 6.56687 11.0459
34 Ar 0.0512226 11.198 2.28402
35 Ar -0.0145537 11.2146 6.8872
36 Ar -0.12682 11.0984 11.1328
37 Ar 4.47456 2.25057 2.23306
38 Ar 4.49325 2.25272 6.67943
39 Ar 4.27989 2.22953 11.1808
40 Ar 4.60975 6.72514 2.1739
41 Ar 4.55975 6.68581 6.54484
42 Ar 4.47795 6.41799 11.1748
43 Ar 4.37014 11.0273 2.11699
44 Ar 4.61367 11.0672 6.77003
45 Ar 4.54266 11.0797 11.2363
46 Ar 8.85888 2.26574 2.24723
47 Ar 8.89633 2.00421 6.74039
48 Ar 8.82006 2.18624 11.0711
49 Ar 8.97182 6.64773 2.15067
50 Ar 8.98391 6.44585 6.87525
51 Ar 8.87124 6.8309 11.1079
52 Ar 8.93354 11.271 2.23614
53 Ar 9.0458 10.9859 6.56847
54 Ar 8.8603 11.0454 11.2319
55 Ar 2.22905 0.137716 2.129
56 Ar 2.21958 0.0680119 6.66258
57 Ar 2.43737 0.0298658 11.0327
58 Ar 2.22568 4.53828 2.39335
59 Ar 2.28914 4.45107 6.58
60 Ar 2.28577 4.40596 10.9056
61 Ar 2.13605 8.76261 2.24431
62 Ar 2.19439 8.93592 6.71792
63 Ar 2.17419 8.90379 11.3407
64 Ar 6.66642 0.0899434 2.34322
65 Ar 6.66401 -0.0250024 6.78754
66 Ar 6.56087 -0.0588523 11.0112
67 Ar 6.63795 4.56671 2.30047
68 Ar 6.77842 4.23365 6.69032
69 Ar 6.80824 4.526 11.1946
70 Ar 6.69475 8.83155 2.29249
71 Ar 6.70499 8.76194 6.68803
72 Ar 6.61468 8.86503 11.0325
73 Ar 11.1075 0.100753 2.07169
74 Ar 11.1828 0.0695454 6.76095
75 Ar 11.0689 0.142263 10.9363
76 Ar 11.0703 4.30014 2.35539
77 Ar 11.3101 4.54625 6.61273
78 Ar 11.0343 4.41857 11.0452
79 Ar 11.2478 9.21715 2.2957
80 Ar 11.0859 8.80668 6.88632
81 Ar 11.0947 8.83307 11.1979
82 Ar 2.24521 2.33904 0.0815705
83 Ar 2.08378 2.33377 4.42268
84 Ar 2.22792 2.21207 8.73094
85 Ar 2.23188 6.41781 -0.0764185
86 Ar 2.18522 6.68846 4.63728
87 Ar 2.36557 6.50066 8.84173
88 Ar 2.27656 11.1849 0.00400203
89 Ar 2.15843 11.0945 4.4759
90 Ar 2.21634 10.9582 8.90778
91 Ar 6.72915 2.3223 0.0430729
92 Ar 6.52941 2.01634 4.47241
93 Ar 6.6795 2.17725 8.91948
94 Ar 6.70597 6.7674 -0.0263111
95 Ar 6.75625 6.67134 4.49149
96 Ar 6.71355 6.72419 8.95686
97 Ar 6.55457 11.198 0.12434
98 Ar 6.79209 11.047 4.33338
99 Ar 6.74103 11.1622 8.85919
100 Ar 11.0036 2.19362 -0.037981
101 Ar 11.0999 2.32016 4.56787
102 Ar 11.147 2.34395 8.8006
103 Ar 11.1154 6.57302 -0.088619
104 Ar 11.1396 6.7654 4.29336
105 Ar 11.2005 6.57512 8.9775
106 Ar 11.0957 11.0809 -0.132844
107 Ar 11.1121 11.265 4.34489
108 Ar 11.1584 11.2454 8.83346
ITEM: TIMESTEP
72010
ITEM: NUMBER OF ATOMS
108
ITEM: BOX BOUNDS pp pp pp
0.0000000000000000e+00 1.3349999400000000e+01
0.0000000000000000e+00 1.3349999400000000e+01
0.0000000000000000e+00 1.3349999400000000e+01
ITEM: ATOMS id element xu yu zu
1 Ar -0.0634107 -0.184522 0.0340186
2 Ar -0.0295275 -0.0829114 4.40666
3 Ar 0.0177216 0.124468 8.74947
4 Ar -0.122544 4.3884 0.109811
5 Ar -0.0246142 4.42231 4.3426
6 Ar -0.0623069 4.58985 8.85688
7 Ar 0.0101811 8.87784 -0.0300867
8 Ar -0.171415 9.07001 4.57036
9 Ar 0.122762 8.71306 8.94489
10 Ar 4.3006 0.174623 0.10613
11 Ar 4.34176 0.040255 4.35806
12 Ar 4.4979 -0.070905 8.71407
13 Ar 4.58458 4.38948 -0.0181685
14 Ar 4.55124 4.68883 4.35994
15 Ar 4.53319 4.40712 8.9426
16 Ar 4.46248 8.79224 -0.0200011
17 Ar 4.58584 8.96811 4.47804
18 Ar 4.21381 8.94472 8.89533
19 Ar 8.68367 0.0624501 -0.179773
20 Ar 8.89681 0.165511 4.49081
21 Ar 8.92719 -0.19183 8.84954
22 Ar 8.79563 4.49967 0.144991
23 Ar 8.85702 4.42634 4.36581
24 Ar 8.93226 4.44925 9.00314
25 Ar 8.71523 9.10558 0.255902
26 Ar 9.06726 8.98487 4.33592
27 Ar 8.94194 8.92436 8.87126
28 Ar 0.00555252 2.16496 2.40529
29 Ar 0.0421857 2.19121 6.78815
30 Ar -0.04868 2.23976 10.9485
31 Ar -0.0118584 6.58121 2.12189
32 Ar -0.25795 6.76348 6.57737
33 Ar 0.212079 6.57143 11.0326
34 Ar 0.0610416 11.1867 2.30176
35 Ar -0.022299 11.226 6.87497
36 Ar -0.146663 11.103 11.1202
37 Ar 4.4591 2.22588 2.21216
38 Ar 4.50686 2.26767 6.69825
39 Ar 4.2887 2.22699 11.1834
40 Ar 4.61021 6.71743 2.16052
41 Ar 4.54321 6.68797 6.55874
42 Ar 4.49066 6.38317 11.1716
43 Ar 4.36853 11.0399 2.11611
44 Ar 4.58706 11.0707 6.76264
45 Ar 4.53621 11.0873 11.238
46 Ar 8.85996 2.25519 2.23814
47 Ar 8.88978 2.02861 6.74236
48 Ar 8.83678 2.20575 11.0614
49 Ar 8.9737 6.64092 2.14273
50 Ar 8.96002 6.46158 6.87324
51 Ar 8.86224 6.82526 11.1013
52 Ar 8.948 11.2603 2.24194
53 Ar 9.04068 10.9798 6.59421
54 Ar 8.85652 11.0413 11.2103
55 Ar 2.2297 0.150791 2.13375
56 Ar 2.21025 0.0797857 6.66862
57 Ar 2.40676 0.0352313 11.0451
58 Ar 2.2391 4.54901 2.3869
59 Ar 2.29771 4.43482 6.58828
60 Ar 2.27316 4.40537 10.8983
61 Ar 2.13627 8.74001 2.23979
62 Ar 2.18351 8.93879 6.71667
63 Ar 2.16764 8.87958 11.3192
64 Ar 6.65859 0.0830073 2.34719
65 Ar 6.6615 -0.0108314 6.80844
66 Ar 6.55658 -0.0405413 11.029
67 Ar 6.66144 4.56478 2.27855
68 Ar 6.80097 4.21999 6.70176
69 Ar 6.81141 4.51942 11.1891
70 Ar 6.70191 8.82775 2.28276
71 Ar 6.70157 8.75058 6.69512
72 Ar 6.61208 8.86023 11.0322
73 Ar 11.1148 0.0782077 2.0605
74 Ar 11.1875 0.0726801 6.76406
75 Ar 11.0873 0.127328 10.9358
76 Ar 11.0783 4.32973 2.3777
77 Ar 11.2977 4.55571 6.60807
78 Ar 11.0323 4.42104 11.0514
79 Ar 11.2392 9.2245 2.29434
80 Ar 11.0829 8.78897 6.89149
81 Ar 11.0782 8.84414 11.1755
82 Ar 2.25616 2.32426 0.0927956
83 Ar 2.09923 2.3299 4.42388
84 Ar 2.24501 2.22925 8.73807
85 Ar 2.22896 6.39886 -0.0565578
86 Ar 2.19689 6.699 4.63973
87 Ar 2.34511 6.50714 8.84966
88 Ar 2.27011 11.1904 0.0111485
89 Ar 2.17677 11.0726 4.45607
90 Ar 2.22275 10.9757 8.90598
91 Ar 6.72307 2.33284 0.0640297
92 Ar 6.54147 2.02331 4.46051
93 Ar 6.67651 2.17117 8.90466
94 Ar 6.70025 6.78052 -0.0234592
95 Ar 6.72987 6.68046 4.47102
96 Ar 6.72128 6.71631 8.99155
97 Ar 6.54833 11.2154 0.130701
98 Ar 6.79333 11.0548 4.34736
99 Ar 6.72514 11.1568 8.8604
100 Ar 10.9862 2.18301 -0.0384509
101 Ar 11.1115 2.31506 4.5732
102 Ar 11.1323 2.33989 8.80037
103 Ar 11.1184 6.58379 -0.0986457
104 Ar 11.1236 6.76445 4.30126
105 Ar 11.2052 6.56608 8.96449
106 Ar 11.0752 11.1094 -0.14968
107 Ar 11.1116 11.2533 4.35549
108 Ar 11.1603 11.233 8.83884
ITEM: TIMESTEP
72020
ITEM: NUMBER OF ATOMS
108
ITEM: BOX BOUNDS pp pp pp
0.0000000000000000e+00 1.3349999400000000e+01
0.0000000000000000e+00 1.3349999400000000e+01
0.0000000000000000e+00 1.3349999400000000e+01
ITEM: ATOMS id element xu yu zu
1 Ar -0.0968419 -0.173088 0.0240769
2 Ar -0.000442465 -0.122467 4.40911
3 Ar 0.0104775 0.129939 8.73132
4 Ar -0.11435 4.378 0.119034
5 Ar -0.0290359 4.43246 4.33577
6 Ar -0.0659616 4.59377 8.85042
7 Ar 0.0422511 8.87382 -0.0346507
8 Ar -0.147304 9.07789 4.58363
9 Ar 0.142502 8.71524 8.94037
10 Ar 4.29708 0.16315 0.107549
11 Ar 4.34451 0.0358864 4.36738
12 Ar 4.49683 -0.0560185 8.71632
13 Ar 4.59691 4.38773 -0.00892372
14 Ar 4.55144 4.68631 4.3768
15 Ar 4.5162 4.4241 8.93128
16 Ar 4.45457 8.80084 -0.0233418
17 Ar 4.56899 8.9624 4.4689
18 Ar 4.22952 8.9274 8.90012
19 Ar 8.68047 0.0514977 -0.169614
20 Ar 8.89389 0.158351 4.50887
21 Ar 8.91439 -0.177246 8.84479
22 Ar 8.81286 4.4927 0.159217
23 Ar 8.89 4.41939 4.36664
24 Ar 8.94996 4.46372 9.01473
25 Ar 8.73084 9.09144 0.239578
26 Ar 9.06735 9.00448 4.32673
27 Ar 8.94772 8.9061 8.87139
28 Ar 0.0116344 2.16524 2.40254
29 Ar 0.0397185 2.21022 6.77353
30 Ar -0.0488681 2.24858 10.926
31 Ar 0.0033059 6.59152 2.12999
32 Ar -0.258776 6.74591 6.58347
33 Ar 0.205388 6.57646 11.0223
34 Ar 0.071979 11.1749 2.31711
35 Ar -0.0293615 11.2348 6.85935
36 Ar -0.163624 11.1082 11.1058
37 Ar 4.44372 2.20421 2.19315
38 Ar 4.51912 2.28236 6.71518
39 Ar 4.30165 2.22501 11.1843
40 Ar 4.60688 6.71002 2.14774
41 Ar 4.52626 6.68954 6.5761
42 Ar 4.50273 6.35364 11.1677
43 Ar 4.36688 11.0531 2.1181
44 Ar 4.55874 11.0742 6.75181
45 Ar 4.52802 11.0952 11.2381
46 Ar 8.86098 2.24351 2.22929
47 Ar 8.88369 2.05658 6.74458
48 Ar 8.85347 2.22515 11.0517
49 Ar 8.97585 6.63632 2.13606
50 Ar 8.93544 6.47968 6.86765
51 Ar 8.85444 6.81841 11.0965
52 Ar 8.96149 11.2516 2.24693
53 Ar 9.03352 10.9761 6.61984
54 Ar 8.85204 11.0378 11.1871
55 Ar 2.2288 0.161198 2.14119
56 Ar 2.20231 0.0890097 6.67273
57 Ar 2.3723 0.0387467 11.0572
58 Ar 2.25376 4.55926 2.37817
59 Ar 2.30528 4.41903 6.59743
60 Ar 2.25844 4.40247 10.8944
61 Ar 2.13746 8.71816 2.23552
62 Ar 2.17252 8.94063 6.71327
63 Ar 2.16311 8.85532 11.2957
64 Ar 6.65077 0.0736445 2.34798
65 Ar 6.66022 0.0020908 6.82484
66 Ar 6.55226 -0.0210988 11.0479
67 Ar 6.68535 4.5607 2.25613
68 Ar 6.82257 4.20949 6.71233
69 Ar 6.81392 4.51097 11.1827
70 Ar 6.70842 8.82536 2.27369
71 Ar 6.69986 8.74138 6.70258
72 Ar 6.60902 8.85695 11.0329
73 Ar 11.1209 0.0551064 2.05137
74 Ar 11.1909 0.0747383 6.76419
75 Ar 11.1062 0.111056 10.9377
76 Ar 11.0867 4.3604 2.39662
77 Ar 11.2817 4.56232 6.60299
78 Ar 11.0316 4.42342 11.0608
79 Ar 11.2298 9.22682 2.28891
80 Ar 11.08 8.7734 6.89413
81 Ar 11.0628 8.85522 11.1521
82 Ar 2.26337 2.31118 0.102265
83 Ar 2.11814 2.32402 4.42673
84 Ar 2.26312 2.24705 8.74782
85 Ar 2.22663 6.38155 -0.0357769
86 Ar 2.2075 6.7112 4.63978
87 Ar 2.32454 6.51629 8.85569
88 Ar 2.26238 11.1949 0.0176006
89 Ar 2.19684 11.0512 4.43695
90 Ar 2.2278 10.9976 8.90614
91 Ar 6.71575 2.3412 0.0837239
92 Ar 6.55479 2.035 4.44983
93 Ar 6.67339 2.16557 8.89181
94 Ar 6.69535 6.79259 -0.0209177
95 Ar 6.70655 6.69034 4.45123
96 Ar 6.72697 6.70711 9.0239
97 Ar 6.54291 11.2327 0.136159
98 Ar 6.79318 11.0646 4.3635
99 Ar 6.70913 11.1483 8.86255
100 Ar 10.9703 2.17351 -0.0395794
101 Ar 11.1233 2.30749 4.57847
102 Ar 11.1166 2.33551 8.80049
103 Ar 11.1214 6.59605 -0.107558
104 Ar 11.1069 6.7628 4.30979
105 Ar 11.2077 6.5597 8.95285
106 Ar 11.0543 11.139 -0.164327
107 Ar 11.111 11.2436 4.36944
108 Ar 11.1619 11.2176 8.84662
ITEM: TIMESTEP
72030
ITEM: NUMBER OF ATOMS
108
ITEM: BOX BOUNDS pp pp pp
0.0000000000000000e+00 1.3349999400000000e+01
0.0000000000000000e+00 1.3349999400000000e+01
0.0000000000000000e+00 1.3349999400000000e+01
ITEM: ATOMS id element xu yu zu
1 Ar -0.128075 -0.158056 0.0119158
2 Ar 0.0287467 -0.159345 4.41353
3 Ar 0.00467114 0.133161 8.71888
4 Ar -0.105715 4.36571 0.126105
5 Ar -0.0326827 4.44459 4.33192
6 Ar -0.066962 4.59434 8.84291
7 Ar 0.0724846 8.86982 -0.0380277
8 Ar -0.121791 9.08391 4.59664
9 Ar 0.16026 8.71944 8.93602
10 Ar 4.29776 0.149063 0.106478
11 Ar 4.34687 0.0292314 4.3787
12 Ar 4.49288 -0.0405358 8.72238
13 Ar 4.60729 4.38643 0.00175081
14 Ar 4.55076 4.67922 4.3949
15 Ar 4.50122 4.44044 8.91785
16 Ar 4.44569 8.80995 -0.026919
17 Ar 4.54989 8.95627 4.45925
18 Ar 4.24913 8.90751 8.90649
19 Ar 8.67947 0.0396162 -0.157656
20 Ar 8.89211 0.14821 4.52625
21 Ar 8.90125 -0.160824 8.84143
22 Ar 8.83251 4.48528 0.170183
23 Ar 8.92186 4.41278 4.37047
24 Ar 8.96608 4.47721 9.02428
25 Ar 8.74944 9.07521 0.21976
26 Ar 9.06546 9.02117 4.31945
27 Ar 8.95234 8.88829 8.8728
28 Ar 0.0158431 2.16582 2.3959
29 Ar 0.0365838 2.23218 6.75509
30 Ar -0.0474585 2.25752 10.9068
31 Ar 0.0167943 6.60391 2.13957
32 Ar -0.253378 6.72809 6.58936
33 Ar 0.195454 6.58176 11.0155
34 Ar 0.0838049 11.1627 2.3294
35 Ar -0.0356187 11.2409 6.84076
36 Ar -0.177271 11.1139 11.09
37 Ar 4.42891 2.18603 2.17666
38 Ar 4.53002 2.29653 6.72975
39 Ar 4.31832 2.22361 11.1836
40 Ar 4.59999 6.70286 2.13575
41 Ar 4.50925 6.69056 6.59672
42 Ar 4.51368 6.32978 11.1633
43 Ar 4.36521 11.0667 2.12293
44 Ar 4.52915 11.0776 6.7379
45 Ar 4.51815 11.1032 11.2365
46 Ar 8.86231 2.23068 2.22107
47 Ar 8.8785 2.0875 6.74683
48 Ar 8.86983 2.24379 11.0422
49 Ar 8.97825 6.63421 2.13083
50 Ar 8.91031 6.49978 6.85854
51 Ar 8.84819 6.81042 11.0938
52 Ar 8.97352 11.2448 2.25095
53 Ar 9.02443 10.9747 6.64511
54 Ar 8.84662 11.0351 11.1627
55 Ar 2.22614 0.168476 2.15116
56 Ar 2.196 0.095769 6.6749
57 Ar 2.33444 0.0406696 11.069
58 Ar 2.2695 4.5686 2.36776
59 Ar 2.31164 4.4042 6.60713
60 Ar 2.24189 4.39736 10.8942
61 Ar 2.13989 8.69744 2.23148
62 Ar 2.16174 8.94158 6.70808
63 Ar 2.16099 8.83141 11.2705
64 Ar 6.64315 0.0619953 2.34582
65 Ar 6.66011 0.0134576 6.83631
66 Ar 6.54803 -0.000766097 11.0676
67 Ar 6.70909 4.55467 2.23414
68 Ar 6.84291 4.20274 6.72182
69 Ar 6.81593 4.50042 11.1758
70 Ar 6.71418 8.82473 2.26533
71 Ar 6.69959 8.7344 6.71027
72 Ar 6.60548 8.85545 11.0349
73 Ar 11.1257 0.0317951 2.04485
74 Ar 11.1927 0.0757486 6.7613
75 Ar 11.125 0.0938988 10.9416
76 Ar 11.0956 4.39148 2.41161
77 Ar 11.262 4.56595 6.59756
78 Ar 11.0325 4.4258 11.0733
79 Ar 11.2202 9.22412 2.27942
80 Ar 11.0775 8.76019 6.89407
81 Ar 11.0487 8.8661 11.1281
82 Ar 2.26669 2.30014 0.109529
83 Ar 2.1401 2.3165 4.43104
84 Ar 2.28172 2.26491 8.75992
85 Ar 2.22499 6.36613 -0.0149183
86 Ar 2.21689 6.72458 4.63761
87 Ar 2.30419 6.52791 8.85971
88 Ar 2.25321 11.1981 0.0231756
89 Ar 2.21866 11.0307 4.41879
90 Ar 2.23168 11.0235 8.90817
91 Ar 6.70758 2.34704 0.101733
92 Ar 6.569 2.05122 4.44036
93 Ar 6.67028 2.16082 8.88161
94 Ar 6.69144 6.80328 -0.0189063
95 Ar 6.68659 6.70065 4.43238
96 Ar 6.73044 6.69662 9.05318
97 Ar 6.53856 11.2495 0.140579
98 Ar 6.79155 11.0763 4.38161
99 Ar 6.69304 11.1368 8.8656
100 Ar 10.9565 2.16525 -0.0412594
101 Ar 11.1352 2.29732 4.58337
102 Ar 11.1001 2.33087 8.80089
103 Ar 11.1244 6.60975 -0.115286
104 Ar 11.0899 6.76098 4.31899
105 Ar 11.2079 6.55613 8.94282
106 Ar 11.0331 11.1688 -0.176732
107 Ar 11.1101 11.236 4.38671
108 Ar 11.1631 11.1993 8.85633
ITEM: TIMESTEP
72040
ITEM: NUMBER OF ATOMS
108
ITEM: BOX BOUNDS pp pp pp
0.0000000000000000e+00 1.3349999400000000e+01
0.0000000000000000e+00 1.3349999400000000e+01
0.0000000000000000e+00 1.3349999400000000e+01
ITEM: ATOMS id element xu yu zu
1 Ar -0.156378 -0.139729 -0.00221047
2 Ar 0.0577135 -0.192834 4.41976
3 Ar 0.000398794 0.134435 8.71201
4 Ar -0.0969358 4.35177 0.131053
5 Ar -0.0350399 4.4584 4.33107
6 Ar -0.0655086 4.59144 8.83438
7 Ar 0.100313 8.86606 -0.0403658
8 Ar -0.095591 9.08773 4.60909
9 Ar 0.175573 8.72578 8.93172
10 Ar 4.30237 0.13247 0.102743
11 Ar 4.34905 0.0206274 4.39199
12 Ar 4.48608 -0.0247928 8.73223
13 Ar 4.6155 4.38559 0.0136122
14 Ar 4.54946 4.66771 4.41379
15 Ar 4.48848 4.45601 8.90253
16 Ar 4.43584 8.81953 -0.0307459
17 Ar 4.52914 8.94972 4.44919
18 Ar 4.27195 8.88569 8.91415
19 Ar 8.68059 0.0271754 -0.144293
20 Ar 8.89146 0.135359 4.54287
21 Ar 8.88817 -0.142884 8.83967
22 Ar 8.85441 4.47754 0.177481
23 Ar 8.95179 4.40663 4.37718
24 Ar 8.9804 4.48981 9.03144
25 Ar 8.77065 9.05737 0.196705
26 Ar 9.06149 9.03471 4.31432
27 Ar 8.95554 8.87106 8.87542
28 Ar 0.0180778 2.1666 2.38592
29 Ar 0.0329485 2.25665 6.73341
30 Ar -0.0446781 2.26646 10.8909
31 Ar 0.0281634 6.61813 2.15052
32 Ar -0.241822 6.71031 6.59479
33 Ar 0.18223 6.58714 11.0123
34 Ar 0.0962116 11.1498 2.3381
35 Ar -0.0409933 11.2441 6.81976
36 Ar -0.187227 11.1197 11.0732
37 Ar 4.41516 2.17161 2.16327
38 Ar 4.53954 2.30989 6.74154
39 Ar 4.33814 2.22281 11.1815
40 Ar 4.58988 6.69591 2.12477
41 Ar 4.49256 6.69107 6.62022
42 Ar 4.52305 6.31177 11.1588
43 Ar 4.36358 11.0803 2.13044
44 Ar 4.49872 11.081 6.72138
45 Ar 4.50666 11.1115 11.2333
46 Ar 8.86426 2.21672 2.21384
47 Ar 8.87464 2.12063 6.74888
48 Ar 8.88556 2.26107 11.0333
49 Ar 8.98081 6.63475 2.12715
50 Ar 8.88483 6.52149 6.84605
51 Ar 8.84378 6.80136 11.0935
52 Ar 8.98366 11.24 2.25389
53 Ar 9.01356 10.9755 6.66984
54 Ar 8.84009 11.0333 11.1372
55 Ar 2.22165 0.172262 2.16341
56 Ar 2.19144 0.100234 6.67526
57 Ar 2.29374 0.0413152 11.0803
58 Ar 2.2861 4.57662 2.3563
59 Ar 2.31658 4.3908 6.61703
60 Ar 2.22387 4.39029 10.8979
61 Ar 2.14377 8.67826 2.22764
62 Ar 2.15151 8.94181 6.70159
63 Ar 2.16156 8.80822 11.2439
64 Ar 6.63589 0.048336 2.34109
65 Ar 6.66103 0.0229918 6.8426
66 Ar 6.54402 0.0201774 11.0878
67 Ar 6.73211 4.54699 2.21345
68 Ar 6.86163 4.20025 6.73007
69 Ar 6.81754 4.48762 11.1687
70 Ar 6.71912 8.82616 2.25768
71 Ar 6.70042 8.72967 6.71802
72 Ar 6.60145 8.85588 11.0383
73 Ar 11.1293 0.00862641 2.04139
74 Ar 11.1925 0.0757404 6.75553
75 Ar 11.1432 0.0763597 10.947
76 Ar 11.105 4.42234 2.42223
77 Ar 11.2387 4.56661 6.59193
78 Ar 11.0352 4.42825 11.0888
79 Ar 11.2109 9.21657 2.2661
80 Ar 11.0756 8.74948 6.89118
81 Ar 11.0365 8.87664 11.1039
82 Ar 2.26609 2.29125 0.114193
83 Ar 2.16464 2.30772 4.43655
84 Ar 2.30026 2.28224 8.77402
85 Ar 2.22412 6.35282 0.00516465
86 Ar 2.22497 6.73861 4.6334
87 Ar 2.28434 6.54167 8.86171
88 Ar 2.24253 11.2003 0.0277448
89 Ar 2.24214 11.0112 4.40177
90 Ar 2.2346 11.0526 8.91189
91 Ar 6.69897 2.35005 0.117675
92 Ar 6.58373 2.07161 4.432
93 Ar 6.66731 2.15724 8.87458
94 Ar 6.68861 6.81236 -0.0175925
95 Ar 6.67014 6.71109 4.41471
96 Ar 6.73161 6.68493 9.07873
97 Ar 6.53548 11.2652 0.143809
98 Ar 6.78836 11.0893 4.4015
99 Ar 6.67684 11.123 8.86943
100 Ar 10.9448 2.15831 -0.0433738
101 Ar 11.1473 2.28452 4.58754
102 Ar 11.0831 2.32602 8.80153
103 Ar 11.1278 6.62485 -0.121757
104 Ar 11.073 6.75949 4.3289
105 Ar 11.2058 6.55542 8.93457
106 Ar 11.012 11.1982 -0.186925
107 Ar 11.1092 11.2303 4.40709
108 Ar 11.1637 11.1789 8.8674
ITEM: TIMESTEP
72050
ITEM: NUMBER OF ATOMS
108
ITEM: BOX BOUNDS pp pp pp
0.0000000000000000e+00 1.3349999400000000e+01
0.0000000000000000e+00 1.3349999400000000e+01
0.0000000000000000e+00 1.3349999400000000e+01
ITEM: ATOMS id element xu yu zu
1 Ar -0.181111 -0.118427 -0.0180109
2 Ar 0.0861378 -0.22232 4.42758
3 Ar -0.00232746 0.134097 8.71036
4 Ar -0.0882855 4.33653 0.133945
5 Ar -0.035671 4.47354 4.33316
6 Ar -0.0619039 4.5851 8.82494
7 Ar 0.125313 8.8627 -0.0418602
8 Ar -0.0694202 9.0891 4.6206
9 Ar 0.188011 8.73439 8.92735
10 Ar 4.31044 0.11363 0.0963061
11 Ar 4.3513 0.0104666 4.40713
12 Ar 4.47659 -0.00912869 8.74569
13 Ar 4.62135 4.38524 0.0263533
14 Ar 4.54781 4.65208 4.4331
15 Ar 4.47811 4.47071 8.88564
16 Ar 4.42505 8.82951 -0.0348014
17 Ar 4.50738 8.94273 4.43887
18 Ar 4.29726 8.86261 8.9228
19 Ar 8.68373 0.0145475 -0.129914
20 Ar 8.89183 0.120156 4.55866
21 Ar 8.87552 -0.123748 8.83965
22 Ar 8.87837 4.4696 0.180844
23 Ar 8.97913 4.40103 4.38654
24 Ar 8.99278 4.50162 9.03593
25 Ar 8.79407 9.03841 0.170735
26 Ar 9.05537 9.045 4.31149
27 Ar 8.95708 8.85451 8.87913
28 Ar 0.0183111 2.16756 2.37318
29 Ar 0.0289926 2.28304 6.70917
30 Ar -0.0408219 2.2753 10.8785
31 Ar 0.0370314 6.63385 2.16272
32 Ar -0.22441 6.69275 6.59957
33 Ar 0.165744 6.59239 11.0129
34 Ar 0.108835 11.1364 2.34283
35 Ar -0.0454438 11.2443 6.79702
36 Ar -0.193181 11.1253 11.0559
37 Ar 4.40285 2.16105 2.15338
38 Ar 4.5477 2.32219 6.75022
39 Ar 4.36051 2.22262 11.1781
40 Ar 4.57705 6.68914 2.11499
41 Ar 4.47651 6.69114 6.64612
42 Ar 4.53043 6.29964 11.1546
43 Ar 4.36207 11.0938 2.14041
44 Ar 4.4679 11.0843 6.70282
45 Ar 4.49366 11.1199 11.2285
46 Ar 8.8671 2.20168 2.20797
47 Ar 8.87249 2.15517 6.75048
48 Ar 8.9004 2.27642 11.0254
49 Ar 8.98346 6.63803 2.12509
50 Ar 8.85923 6.5444 6.83038
51 Ar 8.84142 6.79132 11.0959
52 Ar 8.99156 11.237 2.25569
53 Ar 9.00106 10.9784 6.69386
54 Ar 8.83232 11.0326 11.1109
55 Ar 2.21538 0.172317 2.1776
56 Ar 2.18869 0.102641 6.67404
57 Ar 2.25078 0.0410264 11.0913
58 Ar 2.30326 4.58289 2.34446
59 Ar 2.31996 4.37926 6.6268
60 Ar 2.20481 4.38167 10.9054
61 Ar 2.14931 8.66106 2.22395
62 Ar 2.14224 8.94152 6.69434
63 Ar 2.16507 8.78606 11.2164
64 Ar 6.62909 0.0330593 2.3343
65 Ar 6.66274 0.0304752 6.84362
66 Ar 6.54042 0.0414146 11.1082
67 Ar 6.75399 4.53804 2.19484
68 Ar 6.87832 4.2025 6.73698
69 Ar 6.81879 4.47248 11.1618
70 Ar 6.72321 8.82991 2.25067
71 Ar 6.70197 8.72723 6.72564
72 Ar 6.59698 8.85831 11.0433
73 Ar 11.1317 -0.0140496 2.0414
74 Ar 11.1904 0.0747464 6.74716
75 Ar 11.1602 0.0589744 10.9536
76 Ar 11.1149 4.45236 2.42818
77 Ar 11.2121 4.56447 6.58628
78 Ar 11.04 4.43088 11.1071
79 Ar 11.2025 9.20448 2.24928
80 Ar 11.0744 8.74134 6.88537
81 Ar 11.0263 8.88668 11.0801
82 Ar 2.26173 2.28452 0.115949
83 Ar 2.19122 2.29807 4.44294
84 Ar 2.31822 2.29845 8.78973
85 Ar 2.22401 6.34185 0.0236379
86 Ar 2.23176 6.75273 4.62736
87 Ar 2.26526 6.55716 8.86176
88 Ar 2.23033 11.2012 0.0312249
89 Ar 2.26708 10.9931 4.38605
90 Ar 2.23674 11.084 8.91705
91 Ar 6.69033 2.35001 0.131229
92 Ar 6.59871 2.09569 4.42456
93 Ar 6.66461 2.15507 8.87112
94 Ar 6.6869 6.81959 -0.0170801
95 Ar 6.65722 6.72136 4.39841
96 Ar 6.7305 6.67218 9.1
97 Ar 6.5338 11.2792 0.145693
98 Ar 6.78359 11.1033 4.42292
99 Ar 6.66047 11.1071 8.87386
100 Ar 10.9354 2.15268 -0.0457943
101 Ar 11.1595 2.26916 4.59056
102 Ar 11.0662 2.32094 8.80238
103 Ar 11.1316 6.64127 -0.126897
104 Ar 11.0564 6.75879 4.33963
105 Ar 11.2015 6.55747 8.92817
106 Ar 10.9911 11.2263 -0.195011
107 Ar 11.1084 11.2265 4.4302
108 Ar 11.1634 11.1566 8.8792
ITEM: TIMESTEP
72060
ITEM: NUMBER OF ATOMS
108
ITEM: BOX BOUNDS pp pp pp
0.0000000000000000e+00 1.3349999400000000e+01
0.0000000000000000e+00 1.3349999400000000e+01
0.0000000000000000e+00 1.3349999400000000e+01
ITEM: ATOMS id element xu yu zu
1 Ar -0.201758 -0.0944913 -0.0351374
2 Ar 0.113703 -0.247315 4.43668
3 Ar -0.00358152 0.132489 8.71337
4 Ar -0.0800051 4.32038 0.134874
5 Ar -0.0342527 4.48962 4.33804
6 Ar -0.056533 4.57549 8.81472
7 Ar 0.147202 8.8599 -0.042747
8 Ar -0.0439733 9.08784 4.63077
9 Ar 0.197192 8.74533 8.92281
10 Ar 4.32136 0.0929525 0.0872739
11 Ar 4.35392 -0.000819106 4.42393
12 Ar 4.46472 0.00613537 8.76246
13 Ar 4.62476 4.38537 0.0396164
14 Ar 4.54605 4.6328 4.4525
15 Ar 4.47017 4.4845 8.8676
16 Ar 4.41342 8.83984 -0.0390351
17 Ar 4.48532 8.93519 4.42842
18 Ar 4.32436 8.83894 8.9321
19 Ar 8.68877 0.00210229 -0.114905
20 Ar 8.89308 0.10303 4.57354
21 Ar 8.86361 -0.103738 8.84148
22 Ar 8.9041 4.46159 0.180167
23 Ar 9.00331 4.396 4.39817
24 Ar 9.00313 4.51276 9.0376
25 Ar 8.81923 9.01879 0.142217
26 Ar 9.04714 9.05202 4.31108
27 Ar 8.95677 8.83871 8.88377
28 Ar 0.0165788 2.16869 2.35836
29 Ar 0.0248992 2.31065 6.68311
30 Ar -0.0362448 2.28389 10.8696
31 Ar 0.0430981 6.65069 2.17603
32 Ar -0.201664 6.67557 6.60361
33 Ar 0.146113 6.59732 11.0172
34 Ar 0.121276 11.1223 2.3434
35 Ar -0.0489535 11.2417 6.77335
36 Ar -0.194896 11.1304 11.0388
37 Ar 4.3923 2.15424 2.14724
38 Ar 4.55456 2.33315 6.7556
39 Ar 4.38472 2.22311 11.1736
40 Ar 4.56206 6.68257 2.10663
41 Ar 4.46141 6.69086 6.67375
42 Ar 4.53545 6.29325 11.151
43 Ar 4.36078 11.1068 2.15248
44 Ar 4.43715 11.0877 6.68289
45 Ar 4.47927 11.1284 11.2222
46 Ar 8.87102 2.18567 2.20372
47 Ar 8.87236 2.19022 6.75141
48 Ar 8.91413 2.28938 11.0187
49 Ar 8.98606 6.64401 2.12463
50 Ar 8.83379 6.5681 6.81176
51 Ar 8.84119 6.7804 11.1012
52 Ar 8.99696 11.2357 2.25635
53 Ar 8.98712 10.983 6.71707
54 Ar 8.82326 11.0332 11.0842
55 Ar 2.20751 0.16855 2.19328
56 Ar 2.18773 0.103271 6.67152
57 Ar 2.20622 0.0401487 11.1021
58 Ar 2.32063 4.58699 2.33295
59 Ar 2.32163 4.36996 6.63612
60 Ar 2.18522 4.372 10.9169
61 Ar 2.15667 8.64624 2.22036
62 Ar 2.13431 8.9409 6.68691
63 Ar 2.1716 8.76519 11.1884
64 Ar 6.62282 0.0166438 2.32601
65 Ar 6.66495 0.0357782 6.83952
66 Ar 6.53743 0.0625925 11.1286
67 Ar 6.77438 4.52822 2.17893
68 Ar 6.89253 4.20986 6.74252
69 Ar 6.81968 4.45503 11.1554
70 Ar 6.72642 8.83617 2.24416
71 Ar 6.70382 8.7271 6.73292
72 Ar 6.59218 8.86272 11.0499
73 Ar 11.1331 -0.035897 2.04516
74 Ar 11.1862 0.0728061 6.73662
75 Ar 11.1756 0.042283 10.961
76 Ar 11.1252 4.48103 2.42928
77 Ar 11.1825 4.55988 6.58086
78 Ar 11.047 4.43374 11.1277
79 Ar 11.1953 9.18828 2.22944
80 Ar 11.074 8.73579 6.87662
81 Ar 11.0185 8.89608 11.0571
82 Ar 2.2539 2.27976 0.114608
83 Ar 2.21928 2.28794 4.44992
84 Ar 2.33514 2.31299 8.80664
85 Ar 2.22458 6.33346 0.0397219
86 Ar 2.23731 6.76638 4.61967
87 Ar 2.24713 6.57385 8.86006
88 Ar 2.21669 11.2011 0.0335686
89 Ar 2.29307 10.9765 4.37173
90 Ar 2.23829 11.1171 8.92338
91 Ar 6.68204 2.34674 0.142146
92 Ar 6.61368 2.12285 4.41787
93 Ar 6.66228 2.15451 8.8714
94 Ar 6.68629 6.82481 -0.0174038
95 Ar 6.64766 6.73116 4.38366
96 Ar 6.72723 6.65855 9.11662
97 Ar 6.5336 11.2908 0.146063
98 Ar 6.77725 11.1181 4.44562
99 Ar 6.64385 11.0899 8.87867
100 Ar 10.9286 2.14828 -0.0483817
101 Ar 11.1716 2.2514 4.592
102 Ar 11.0499 2.31561 8.80343
103 Ar 11.1362 6.65892 -0.130627
104 Ar 11.0404 6.75927 4.35127
105 Ar 11.1953 6.5621 8.92359
106 Ar 10.9707 11.2525 -0.201145
107 Ar 11.1077 11.2241 4.45553
108 Ar 11.1623 11.1332 8.89105
ITEM: TIMESTEP
72070
ITEM: NUMBER OF ATOMS
108
ITEM: BOX BOUNDS pp pp pp
0.0000000000000000e+00 1.3349999400000000e+01
0.0000000000000000e+00 1.3349999400000000e+01
0.0000000000000000e+00 1.3349999400000000e+01
ITEM: ATOMS id element xu yu zu
1 Ar -0.21796 -0.0682913 -0.0531705
2 Ar 0.140093 -0.267469 4.44669
3 Ar -0.00351696 0.129936 8.72033
4 Ar -0.0722987 4.3038 0.133957
5 Ar -0.0305977 4.50625 4.34544
6 Ar -0.0498363 4.5629 8.80392
7 Ar 0.165817 8.85773 -0.0432924
8 Ar -0.0198974 9.08385 4.63917
9 Ar 0.202803 8.75863 8.91801
10 Ar 4.33439 0.0709667 0.0758827
11 Ar 4.35719 -0.0127703 4.44212
12 Ar 4.45089 0.0207149 8.78214
13 Ar 4.62569 4.38598 0.0530101
14 Ar 4.54439 4.61045 4.4717
15 Ar 4.46462 4.49734 8.84895
16 Ar 4.40105 8.85044 -0.0433724
17 Ar 4.46372 8.92698 4.41801
18 Ar 4.35257 8.81532 8.94178
19 Ar 8.69554 -0.00979619 -0.099638
20 Ar 8.89502 0.0844568 4.58744
21 Ar 8.85266 -0.0831667 8.84516
22 Ar 8.93127 4.45367 0.175517
23 Ar 9.02393 4.39151 4.41154
24 Ar 9.01145 4.52332 9.03641
25 Ar 8.84566 8.99895 0.11155
26 Ar 9.03686 9.05591 4.3131
27 Ar 8.95445 8.82368 8.88911
28 Ar 0.0129702 2.16997 2.34209
29 Ar 0.0208461 2.33872 6.65593
30 Ar -0.0313505 2.29207 10.8641
31 Ar 0.0461646 6.66827 2.19026
32 Ar -0.17429 6.65886 6.60692
33 Ar 0.123564 6.60181 11.0251
34 Ar 0.133127 11.1076 2.33981
35 Ar -0.0515173 11.2363 6.7496
36 Ar -0.192231 11.1347 11.0222
37 Ar 4.38368 2.15094 2.14491
38 Ar 4.56024 2.34248 6.75758
39 Ar 4.41005 2.22436 11.1684
40 Ar 4.54558 6.67624 2.09986
41 Ar 4.44752 6.69033 6.70238
42 Ar 4.53785 6.2923 11.1482
43 Ar 4.35984 11.1191 2.16622
44 Ar 4.4069 11.0909 6.66229
45 Ar 4.46363 11.1371 11.2145
46 Ar 8.87617 2.1688 2.20133
47 Ar 8.87445 2.2249 6.7515
48 Ar 8.92661 2.29957 11.0133
49 Ar 8.98848 6.65257 2.12572
50 Ar 8.80885 6.59221 6.79048
51 Ar 8.84309 6.76869 11.1094
52 Ar 8.99967 11.2357 2.25593
53 Ar 8.97194 10.9894 6.73938
54 Ar 8.81292 11.0352 11.0575
55 Ar 2.19831 0.161025 2.20993
56 Ar 2.18847 0.102429 6.66807
57 Ar 2.16076 0.0390096 11.1126
58 Ar 2.33781 4.58856 2.32238
59 Ar 2.32151 4.36319 6.64472
60 Ar 2.16561 4.36188 10.9321
61 Ar 2.16592 8.6342 2.21677
62 Ar 2.12811 8.94015 6.67987
63 Ar 2.18113 8.74584 11.1603
64 Ar 6.61713 -0.000379697 2.31684
65 Ar 6.66736 0.0388814 6.83063
66 Ar 6.53533 0.0833246 11.1485
67 Ar 6.79309 4.51794 2.16619
68 Ar 6.90381 4.22256 6.74672
69 Ar 6.82017 4.43542 11.1497
70 Ar 6.72876 8.84506 2.238
71 Ar 6.70556 8.72931 6.73966
72 Ar 6.5872 8.86897 11.0583
73 Ar 11.1338 -0.0566066 2.05283
74 Ar 11.1803 0.0699688 6.72443
75 Ar 11.1889 0.0267963 10.9685
76 Ar 11.1359 4.50789 2.42555
77 Ar 11.1505 4.55329 6.57597
78 Ar 11.0562 4.43691 11.1503
79 Ar 11.1894 9.16847 2.20715
80 Ar 11.0746 8.73276 6.86499
81 Ar 11.0133 8.90471 11.0354
82 Ar 2.24306 2.27665 0.110114
83 Ar 2.24826 2.27768 4.45718
84 Ar 2.35065 2.32539 8.82435
85 Ar 2.22569 6.32785 0.0527309
86 Ar 2.24177 6.77896 4.61055
87 Ar 2.23009 6.59118 8.85686
88 Ar 2.20179 11.1999 0.0347529
89 Ar 2.31957 10.9617 4.35885
90 Ar 2.23938 11.1509 8.93057
91 Ar 6.67441 2.34019 0.15027
92 Ar 6.62849 2.15242 4.41171
93 Ar 6.66041 2.15566 8.87536
94 Ar 6.6867 6.82792 -0.0185283
95 Ar 6.64126 6.74023 4.37055
96 Ar 6.72203 6.64426 9.12838
97 Ar 6.53491 11.2996 0.144752
98 Ar 6.76935 11.133 4.46935
99 Ar 6.62691 11.0718 8.88362
100 Ar 10.9244 2.14498 -0.0509873
101 Ar 11.1836 2.23148 4.59142
102 Ar 11.0347 2.31001 8.8047
103 Ar 11.1415 6.67768 -0.132864
104 Ar 11.0254 6.76122 4.36389
105 Ar 11.1875 6.56903 8.92069
106 Ar 10.9511 11.2761 -0.205514
107 Ar 11.1073 11.2226 4.48247
108 Ar 11.1603 11.109 8.90225
ITEM: TIMESTEP
72080
ITEM: NUMBER OF ATOMS
108
ITEM: BOX BOUNDS pp pp pp
0.0000000000000000e+00 1.3349999400000000e+01
0.0000000000000000e+00 1.3349999400000000e+01
0.0000000000000000e+00 1.3349999400000000e+01
ITEM: ATOMS id element xu yu zu
1 Ar -0.229522 -0.0402311 -0.0716156
2 Ar 0.16499 -0.282577 4.4572
3 Ar -0.00235427 0.126729 8.73042
4 Ar -0.0653306 4.28729 0.131329
5 Ar -0.0246632 4.52303 4.35499
6 Ar -0.0422798 4.54774 8.79278
7 Ar 0.181099 8.85627 -0.0437793
8 Ar 0.00222947 9.07711 4.64536
9 Ar 0.204613 8.77425 8.91291
10 Ar 4.34872 0.0482847 0.0624786
11 Ar 4.36139 -0.024911 4.46135
12 Ar 4.43563 0.0343745 8.80426
13 Ar 4.62422 4.38703 0.0661297
14 Ar 4.54301 4.5857 4.49045
15 Ar 4.46136 4.50919 8.83027
16 Ar 4.38809 8.86127 -0.0477209
17 Ar 4.44336 8.91793 4.40782
18 Ar 4.38126 8.79233 8.95155
19 Ar 8.70383 -0.0207946 -0.0844655
20 Ar 8.89743 0.064934 4.60025
21 Ar 8.84282 -0.0623324 8.85065
22 Ar 8.95941 4.44602 0.167135
23 Ar 9.0407 4.38755 4.42597
24 Ar 9.01779 4.53338 9.03244
25 Ar 8.87284 8.97932 0.0791556
26 Ar 9.02468 9.05689 4.31748
27 Ar 8.95001 8.8094 8.89494
28 Ar 0.00762088 2.1714 2.32503
29 Ar 0.0169977 2.36645 6.62834
30 Ar -0.0265762 2.29968 10.8618
31 Ar 0.0461507 6.6862 2.20524
32 Ar -0.143131 6.64272 6.60954
33 Ar 0.0984399 6.60576 11.0361
34 Ar 0.143985 11.0924 2.33223
35 Ar -0.05313 11.2282 6.72664
36 Ar -0.185161 11.1378 11.0069
37 Ar 4.37708 2.15072 2.1463
38 Ar 4.56487 2.34994 6.75622
39 Ar 4.43576 2.22651 11.1626
40 Ar 4.52833 6.67023 2.09487