ITEM: TIMESTEP
0
ITEM: NUMBER OF ATOMS
108
ITEM: BOX BOUNDS pp pp pp
0.0000000000000000e+00 1.3349999400000000e+01
0.0000000000000000e+00 1.3349999400000000e+01
0.0000000000000000e+00 1.3349999400000000e+01
ITEM: ATOMS id element xu yu zu
1 Ar 0 0 0
2 Ar 0 0 4.45
3 Ar 0 0 8.9
4 Ar 0 4.45 0
5 Ar 0 4.45 4.45
6 Ar 0 4.45 8.9
7 Ar 0 8.9 0
8 Ar 0 8.9 4.45
9 Ar 0 8.9 8.9
10 Ar 4.45 0 0
11 Ar 4.45 0 4.45
12 Ar 4.45 0 8.9
13 Ar 4.45 4.45 0
14 Ar 4.45 4.45 4.45
15 Ar 4.45 4.45 8.9
16 Ar 4.45 8.9 0
17 Ar 4.45 8.9 4.45
18 Ar 4.45 8.9 8.9
19 Ar 8.9 0 0
20 Ar 8.9 0 4.45
21 Ar 8.9 0 8.9
22 Ar 8.9 4.45 0
23 Ar 8.9 4.45 4.45
24 Ar 8.9 4.45 8.9
25 Ar 8.9 8.9 0
26 Ar 8.9 8.9 4.45
27 Ar 8.9 8.9 8.9
28 Ar 0 2.225 2.225
29 Ar 0 2.225 6.675
30 Ar 0 2.225 11.125
31 Ar 0 6.675 2.225
32 Ar 0 6.675 6.675
33 Ar 0 6.675 11.125
34 Ar 0 11.125 2.225
35 Ar 0 11.125 6.675
36 Ar 0 11.125 11.125
37 Ar 4.45 2.225 2.225
38 Ar 4.45 2.225 6.675
39 Ar 4.45 2.225 11.125
40 Ar 4.45 6.675 2.225
41 Ar 4.45 6.675 6.675
42 Ar 4.45 6.675 11.125
43 Ar 4.45 11.125 2.225
44 Ar 4.45 11.125 6.675
45 Ar 4.45 11.125 11.125
46 Ar 8.9 2.225 2.225
47 Ar 8.9 2.225 6.675
48 Ar 8.9 2.225 11.125
49 Ar 8.9 6.675 2.225
50 Ar 8.9 6.675 6.675
51 Ar 8.9 6.675 11.125
52 Ar 8.9 11.125 2.225
53 Ar 8.9 11.125 6.675
54 Ar 8.9 11.125 11.125
55 Ar 2.225 0 2.225
56 Ar 2.225 0 6.675
57 Ar 2.225 0 11.125
58 Ar 2.225 4.45 2.225
59 Ar 2.225 4.45 6.675
60 Ar 2.225 4.45 11.125
61 Ar 2.225 8.9 2.225
62 Ar 2.225 8.9 6.675
63 Ar 2.225 8.9 11.125
64 Ar 6.675 0 2.225
65 Ar 6.675 0 6.675
66 Ar 6.675 0 11.125
67 Ar 6.675 4.45 2.225
68 Ar 6.675 4.45 6.675
69 Ar 6.675 4.45 11.125
70 Ar 6.675 8.9 2.225
71 Ar 6.675 8.9 6.675
72 Ar 6.675 8.9 11.125
73 Ar 11.125 0 2.225
74 Ar 11.125 0 6.675
75 Ar 11.125 0 11.125
76 Ar 11.125 4.45 2.225
77 Ar 11.125 4.45 6.675
78 Ar 11.125 4.45 11.125
79 Ar 11.125 8.9 2.225
80 Ar 11.125 8.9 6.675
81 Ar 11.125 8.9 11.125
82 Ar 2.225 2.225 0
83 Ar 2.225 2.225 4.45
84 Ar 2.225 2.225 8.9
85 Ar 2.225 6.675 0
86 Ar 2.225 6.675 4.45
87 Ar 2.225 6.675 8.9
88 Ar 2.225 11.125 0
89 Ar 2.225 11.125 4.45
90 Ar 2.225 11.125 8.9
91 Ar 6.675 2.225 0
92 Ar 6.675 2.225 4.45
93 Ar 6.675 2.225 8.9
94 Ar 6.675 6.675 0
95 Ar 6.675 6.675 4.45
96 Ar 6.675 6.675 8.9
97 Ar 6.675 11.125 0
98 Ar 6.675 11.125 4.45
99 Ar 6.675 11.125 8.9
100 Ar 11.125 2.225 0
101 Ar 11.125 2.225 4.45
102 Ar 11.125 2.225 8.9
103 Ar 11.125 6.675 0
104 Ar 11.125 6.675 4.45
105 Ar 11.125 6.675 8.9
106 Ar 11.125 11.125 0
107 Ar 11.125 11.125 4.45
108 Ar 11.125 11.125 8.9
ITEM: TIMESTEP
10
ITEM: NUMBER OF ATOMS
108
ITEM: BOX BOUNDS pp pp pp
0.0000000000000000e+00 1.3349999400000000e+01
0.0000000000000000e+00 1.3349999400000000e+01
0.0000000000000000e+00 1.3349999400000000e+01
ITEM: ATOMS id element xu yu zu
1 Ar -0.0163417 0.0143523 0.0195446
2 Ar -0.0189403 -0.0204047 4.4317
3 Ar 0.0119164 0.00386729 8.91812
4 Ar 0.0126072 4.4432 -0.0122344
5 Ar -0.0091692 4.46263 4.47108
6 Ar -0.0141437 4.44349 8.88102
7 Ar -0.00924861 8.88624 0.0160118
8 Ar -0.0115935 8.91783 4.43961
9 Ar 0.0188225 8.91863 8.89248
10 Ar 4.4561 0.00081072 -0.0121302
11 Ar 4.46802 -0.00673287 4.47099
12 Ar 4.46964 0.0184437 8.88171
13 Ar 4.46853 4.46661 -0.00541918
14 Ar 4.43398 4.45847 4.45417
15 Ar 4.43983 4.43669 8.92159
16 Ar 4.44255 8.90154 0.00950459
17 Ar 4.45511 8.9002 4.44545
18 Ar 4.45485 8.89292 8.91013
19 Ar 8.88489 0.00157054 -0.0180686
20 Ar 8.90346 -0.0135153 4.45765
21 Ar 8.91936 -0.00666346 8.90591
22 Ar 8.89905 4.43323 -0.0144476
23 Ar 8.90296 4.43326 4.43587
24 Ar 8.89781 4.43883 8.88946
25 Ar 8.90384 8.88236 0.0104428
26 Ar 8.90417 8.89589 4.44163
27 Ar 8.91727 8.88657 8.89661
28 Ar 0.00637936 2.24164 2.24596
29 Ar 0.00109505 2.23421 6.68372
30 Ar -0.0114999 2.21713 11.1224
31 Ar 0.0129292 6.67705 2.21651
32 Ar -0.00505562 6.66675 6.68169
33 Ar -0.0146614 6.67308 11.1349
34 Ar -0.0184861 11.1048 2.22306
35 Ar 0.00643986 11.1234 6.68293
36 Ar -0.0171461 11.1336 11.1066
37 Ar 4.46258 2.23527 2.24374
38 Ar 4.45794 2.21841 6.66101
39 Ar 4.46188 2.24547 11.1185
40 Ar 4.44718 6.65815 2.20978
41 Ar 4.44118 6.6875 6.65583
42 Ar 4.44859 6.68741 11.1351
43 Ar 4.44402 11.1337 2.21126
44 Ar 4.43066 11.1421 6.68261
45 Ar 4.46699 11.1134 11.1417
46 Ar 8.89937 2.21689 2.21696
47 Ar 8.91419 2.23078 6.69214
48 Ar 8.90157 2.23047 11.1438
49 Ar 8.91762 6.66363 2.23686
50 Ar 8.90802 6.67525 6.68456
51 Ar 8.89884 6.68449 11.1404
52 Ar 8.87966 11.11 2.21835
53 Ar 8.89056 11.1348 6.65757
54 Ar 8.91909 11.1297 11.1278
55 Ar 2.20809 -0.0155666 2.21682
56 Ar 2.21124 -0.0161657 6.66503
57 Ar 2.23518 -0.00759812 11.1266
58 Ar 2.21845 4.46645 2.21892
59 Ar 2.21639 4.43378 6.69649
60 Ar 2.24359 4.43026 11.137
61 Ar 2.24154 8.90639 2.2223
62 Ar 2.22653 8.90322 6.66469
63 Ar 2.2285 8.90622 11.1383
64 Ar 6.66784 0.0100863 2.20562
65 Ar 6.69095 0.0127908 6.69204
66 Ar 6.67205 0.005827 11.1112
67 Ar 6.67708 4.4667 2.22435
68 Ar 6.68583 4.44228 6.66517
69 Ar 6.6936 4.45487 11.1265
70 Ar 6.68392 8.91676 2.2122
71 Ar 6.67849 8.88776 6.66625
72 Ar 6.68563 8.8817 11.1301
73 Ar 11.1422 -0.013274 2.22489
74 Ar 11.134 -0.0185383 6.69548
75 Ar 11.1349 0.0137146 11.1129
76 Ar 11.1047 4.45017 2.24237
77 Ar 11.1258 4.46483 6.66809
78 Ar 11.1164 4.43092 11.1198
79 Ar 11.1273 8.90786 2.23586
80 Ar 11.1113 8.90943 6.67444
81 Ar 11.1117 8.89656 11.1332
82 Ar 2.20853 2.24112 -0.0119354
83 Ar 2.20856 2.21456 4.44547
84 Ar 2.24025 2.2187 8.91548
85 Ar 2.20585 6.69427 -0.0100579
86 Ar 2.23827 6.67068 4.45223
87 Ar 2.24499 6.67961 8.90594
88 Ar 2.22137 11.1128 -0.0183503
89 Ar 2.23158 11.1069 4.42971
90 Ar 2.21455 11.1335 8.88053
91 Ar 6.67188 2.2229 0.0108785
92 Ar 6.67385 2.23901 4.44694
93 Ar 6.67184 2.23862 8.89078
94 Ar 6.66364 6.67646 0.00906162
95 Ar 6.65733 6.65608 4.46538
96 Ar 6.67644 6.67675 8.88305
97 Ar 6.67441 11.129 -0.0188677
98 Ar 6.66261 11.1076 4.46107
99 Ar 6.6876 11.1342 8.90589
100 Ar 11.1293 2.21302 -0.00212765
101 Ar 11.1095 2.20618 4.43937
102 Ar 11.1338 2.23623 8.92107
103 Ar 11.1219 6.6673 -0.00118466
104 Ar 11.1366 6.69367 4.47141
105 Ar 11.1061 6.68468 8.91045
106 Ar 11.1216 11.1419 -0.0190132
107 Ar 11.1188 11.1247 4.46185
108 Ar 11.1104 11.1427 8.88419
ITEM: TIMESTEP
20
ITEM: NUMBER OF ATOMS
108
ITEM: BOX BOUNDS pp pp pp
0.0000000000000000e+00 1.3349999400000000e+01
0.0000000000000000e+00 1.3349999400000000e+01
0.0000000000000000e+00 1.3349999400000000e+01
ITEM: ATOMS id element xu yu zu
1 Ar -0.0322189 0.0284041 0.0387115
2 Ar -0.0375636 -0.0406058 4.41383
3 Ar 0.0237519 0.00783019 8.93583
4 Ar 0.0247006 4.43651 -0.0242304
5 Ar -0.0181945 4.4751 4.49178
6 Ar -0.0279371 4.43731 8.8627
7 Ar -0.0185884 8.87292 0.0316389
8 Ar -0.022836 8.93524 4.42954
9 Ar 0.0371989 8.93678 8.88518
10 Ar 4.46188 0.00189153 -0.0240986
11 Ar 4.48577 -0.0133952 4.49148
12 Ar 4.48887 0.0365169 8.86382
13 Ar 4.48669 4.48284 -0.0107375
14 Ar 4.41798 4.46664 4.45837
15 Ar 4.43005 4.42387 8.94259
16 Ar 4.43536 8.90303 0.01894
17 Ar 4.46026 8.90041 4.44075
18 Ar 4.45971 8.8862 8.92004
19 Ar 8.87009 0.00306309 -0.0358178
20 Ar 8.90665 -0.0267814 4.46502
21 Ar 8.93835 -0.0129209 8.91187
22 Ar 8.89815 4.41682 -0.0284603
23 Ar 8.90591 4.41684 4.42213
24 Ar 8.8957 4.42795 8.87921
25 Ar 8.90771 8.86502 0.0208395
26 Ar 8.90809 8.89168 4.43338
27 Ar 8.93406 8.87362 8.89327
28 Ar 0.0125499 2.25828 2.26667
29 Ar 0.00198162 2.24293 6.69221
30 Ar -0.022583 2.20945 11.1199
31 Ar 0.0255008 6.67899 2.20837
32 Ar -0.0098562 6.65901 6.6885
33 Ar -0.0290821 6.67109 11.1444
34 Ar -0.0366411 11.0849 2.22088
35 Ar 0.0127326 11.1217 6.69056
36 Ar -0.0340886 11.142 11.0886
37 Ar 4.47459 2.24539 2.26212
38 Ar 4.46557 2.21205 6.64712
39 Ar 4.47381 2.26545 11.1124
40 Ar 4.44437 6.64174 2.19484
41 Ar 4.43242 6.6996 6.63724
42 Ar 4.44728 6.69958 11.145
43 Ar 4.43828 11.1425 2.19763
44 Ar 4.41181 11.1588 6.69027
45 Ar 4.48373 11.1019 11.1578
46 Ar 8.89873 2.20864 2.20894
47 Ar 8.92844 2.23632 6.70898
48 Ar 8.90293 2.23567 11.1622
49 Ar 8.93488 6.65245 2.24862
50 Ar 8.91588 6.67537 6.69372
51 Ar 8.89763 6.69359 11.1556
52 Ar 8.8597 11.0955 2.21172
53 Ar 8.88104 11.1444 6.64047
54 Ar 8.93782 11.1342 11.1304
55 Ar 2.19157 -0.0308408 2.20865
56 Ar 2.19749 -0.0318551 6.65501
57 Ar 2.24538 -0.015139 11.1283
58 Ar 2.21203 4.48258 2.21287
59 Ar 2.2081 4.41778 6.71772
60 Ar 2.26165 4.4111 11.1486
61 Ar 2.25782 8.91256 2.21967
62 Ar 2.22803 8.90632 6.65443
63 Ar 2.23172 8.9125 11.1512
64 Ar 6.66082 0.0198294 2.18675
65 Ar 6.70691 0.0254401 6.70875
66 Ar 6.66918 0.0117524 11.0974
67 Ar 6.67925 4.48315 2.22372
68 Ar 6.69633 4.43474 6.65552
69 Ar 6.71197 4.45987 11.1279
70 Ar 6.69254 8.933 2.19968
71 Ar 6.68192 8.87587 6.65776
72 Ar 6.69629 8.86372 11.135
73 Ar 11.1587 -0.0264822 2.22468
74 Ar 11.143 -0.0364906 6.71565
75 Ar 11.1446 0.0272654 11.101
76 Ar 11.0851 4.45034 2.25938
77 Ar 11.1263 4.47931 6.66125
78 Ar 11.1079 4.41231 11.1148
79 Ar 11.1294 8.91555 2.24641
80 Ar 11.0979 8.91882 6.67401
81 Ar 11.0988 8.8933 11.1413
82 Ar 2.19261 2.2568 -0.0234596
83 Ar 2.19236 2.20417 4.44103
84 Ar 2.25522 2.21229 8.93068
85 Ar 2.18705 6.71316 -0.0200808
86 Ar 2.25107 6.66654 4.45444
87 Ar 2.26452 6.68408 8.91194
88 Ar 2.21744 11.1009 -0.0364589
89 Ar 2.23804 11.0891 4.40965
90 Ar 2.20464 11.142 8.86168
91 Ar 6.66865 2.22097 0.0215368
92 Ar 6.67294 2.25271 4.44391
93 Ar 6.66896 2.25213 8.88179
94 Ar 6.65268 6.67797 0.0181064
95 Ar 6.6401 6.63751 4.48032
96 Ar 6.67775 6.67826 8.86634
97 Ar 6.67396 11.1328 -0.0375964
98 Ar 6.65029 11.0906 4.47195
99 Ar 6.7001 11.143 8.91167
100 Ar 11.1337 2.20129 -0.00392342
101 Ar 11.0943 2.18749 4.42913
102 Ar 11.1424 2.24723 8.9416
103 Ar 11.1188 6.65942 -0.00217885
104 Ar 11.1481 6.71211 4.49243
105 Ar 11.0877 6.69417 8.92086
106 Ar 11.1182 11.1585 -0.0376927
107 Ar 11.1126 11.1243 4.47352
108 Ar 11.096 11.1598 8.86866
ITEM: TIMESTEP
30
ITEM: NUMBER OF ATOMS
108
ITEM: BOX BOUNDS pp pp pp
0.0000000000000000e+00 1.3349999400000000e+01
0.0000000000000000e+00 1.3349999400000000e+01
0.0000000000000000e+00 1.3349999400000000e+01
ITEM: ATOMS id element xu yu zu
1 Ar -0.0471727 0.0418757 0.0571285
2 Ar -0.0555375 -0.0604105 4.39682
3 Ar 0.0354325 0.0119837 8.95273
4 Ar 0.035792 4.43006 -0.0357771
5 Ar -0.0269173 4.48725 4.51173
6 Ar -0.0410734 4.43175 8.8457
7 Ar -0.028114 8.86046 0.0465129
8 Ar -0.0333877 8.95181 4.4201
9 Ar 0.0547183 8.95396 8.87831
10 Ar 4.46702 0.00348338 -0.0357611
11 Ar 4.50301 -0.0199201 4.51103
12 Ar 4.5073 0.0538839 8.84669
13 Ar 4.50412 4.49833 -0.0158821
14 Ar 4.40203 4.47422 4.46261
15 Ar 4.42102 4.41204 8.96244
16 Ar 4.4287 8.9044 0.0282347
17 Ar 4.46549 8.9006 4.43577
18 Ar 4.46458 8.88018 8.92949
19 Ar 8.85591 0.00440305 -0.0529495
20 Ar 8.90932 -0.0395484 4.47181
21 Ar 8.95663 -0.0183726 8.9179
22 Ar 8.89734 4.40112 -0.0415867
23 Ar 8.90884 4.40101 4.40921
24 Ar 8.89372 4.41766 8.86954
25 Ar 8.91164 8.84827 0.0311534
26 Ar 8.9115 8.88726 4.42537
27 Ar 8.94991 8.86162 8.89007
28 Ar 0.0182947 2.27491 2.28686
29 Ar 0.00245804 2.25066 6.70026
30 Ar -0.0328212 2.20217 11.1174
31 Ar 0.0373686 6.68069 2.2009
32 Ar -0.0141443 6.65228 6.69557
33 Ar -0.0430521 6.669 11.1528
34 Ar -0.0541301 11.0654 2.21822
35 Ar 0.0187083 11.1201 6.6976
36 Ar -0.0506317 11.15 11.0713
37 Ar 4.48552 2.25523 2.27983
38 Ar 4.4726 2.20616 6.63343
39 Ar 4.48587 2.28444 11.107
40 Ar 4.44157 6.62621 2.18048
41 Ar 4.42377 6.71095 6.6198
42 Ar 4.44617 6.7113 11.1547
43 Ar 4.43301 11.1514 2.18422
44 Ar 4.39393 11.1746 6.69798
45 Ar 4.49996 11.0908 11.1727
46 Ar 8.89808 2.20013 2.20096
47 Ar 8.94283 2.24137 6.72519
48 Ar 8.90391 2.24033 11.1795
49 Ar 8.95145 6.64169 2.26022
50 Ar 8.92339 6.67524 6.7021
51 Ar 8.89636 6.70194 11.1703
52 Ar 8.84048 11.082 2.20513
53 Ar 8.8714 11.1532 6.62406
54 Ar 8.95583 11.1384 11.1329
55 Ar 2.17578 -0.0455586 2.2005
56 Ar 2.18375 -0.0465957 6.64488
57 Ar 2.25562 -0.0225707 11.1301
58 Ar 2.20587 4.4981 2.2069
59 Ar 2.20045 4.40223 6.73845
60 Ar 2.27867 4.39308 11.1597
61 Ar 2.27359 8.91831 2.21715
62 Ar 2.22945 8.90919 6.64427
63 Ar 2.23443 8.91887 11.1633
64 Ar 6.65405 0.0288985 2.16889
65 Ar 6.7229 0.0378211 6.72482
66 Ar 6.66646 0.0178718 11.0837
67 Ar 6.68164 4.49908 2.22313
68 Ar 6.70623 4.42752 6.64625
69 Ar 6.7299 4.46512 11.129
70 Ar 6.70052 8.94822 2.18767
71 Ar 6.68525 8.86463 6.64977
72 Ar 6.70696 8.84638 11.1397
73 Ar 11.1739 -0.0395522 2.22428
74 Ar 11.1522 -0.0532675 6.73515
75 Ar 11.1539 0.0404751 11.0896
76 Ar 11.0666 4.45048 2.27568
77 Ar 11.1265 4.49311 6.65454
78 Ar 11.0998 4.39466 11.11
79 Ar 11.1311 8.92289 2.25637
80 Ar 11.0852 8.92817 6.67387
81 Ar 11.0867 8.89039 11.149
82 Ar 2.17773 2.27155 -0.03417
83 Ar 2.17665 2.19387 4.43677
84 Ar 2.26962 2.20566 8.94537
85 Ar 2.16898 6.7313 -0.030031
86 Ar 2.26292 6.66278 4.45658
87 Ar 2.28317 6.68829 8.91803
88 Ar 2.21293 11.0897 -0.0540729
89 Ar 2.24429 11.072 4.39006
90 Ar 2.19577 11.1502 8.84404
91 Ar 6.66517 2.21938 0.0317529
92 Ar 6.67251 2.26579 4.44094
93 Ar 6.66658 2.26544 8.87324
94 Ar 6.64253 6.6796 0.0271016
95 Ar 6.62376 6.61964 4.4944
96 Ar 6.67882 6.67932 8.85011
97 Ar 6.67381 11.1364 -0.056031
98 Ar 6.63813 11.0744 4.48244
99 Ar 6.71239 11.151 8.91721
100 Ar 11.1379 2.19008 -0.00507702
101 Ar 11.0797 2.16901 4.41964
102 Ar 11.1505 2.25775 8.96102
103 Ar 11.1159 6.6512 -0.00279947
104 Ar 11.1593 6.73011 4.51267
105 Ar 11.0702 6.70324 8.93121
106 Ar 11.1148 11.1745 -0.0557066
107 Ar 11.1062 11.124 4.48485
108 Ar 11.0822 11.1758 8.85372
ITEM: TIMESTEP
40
ITEM: NUMBER OF ATOMS
108
ITEM: BOX BOUNDS pp pp pp
0.0000000000000000e+00 1.3349999400000000e+01
0.0000000000000000e+00 1.3349999400000000e+01
0.0000000000000000e+00 1.3349999400000000e+01
ITEM: ATOMS id element xu yu zu
1 Ar -0.0607614 0.0545164 0.074436
2 Ar -0.0725224 -0.0796394 4.38106
3 Ar 0.0468924 0.0164142 8.96842
4 Ar 0.0454321 4.42398 -0.046694
5 Ar -0.0351675 4.49893 4.53056
6 Ar -0.0532953 4.4271 8.8306
7 Ar -0.0379197 8.84924 0.0602882
8 Ar -0.04293 8.9672 4.41159
9 Ar 0.0710161 8.96972 8.87205
10 Ar 4.47128 0.00578752 -0.0469925
11 Ar 4.51955 -0.0262444 4.52919
12 Ar 4.52455 0.0702492 8.83067
13 Ar 4.52049 4.51267 -0.0208098
14 Ar 4.38617 4.48091 4.46693
15 Ar 4.41308 4.40168 8.98062
16 Ar 4.42282 8.90561 0.0373107
17 Ar 4.47082 8.90075 4.43037
18 Ar 4.4695 8.87518 8.93831
19 Ar 8.84259 0.00552217 -0.0691945
20 Ar 8.91125 -0.0515716 4.47774
21 Ar 8.9738 -0.0226379 8.92402
22 Ar 8.8967 4.38648 -0.05337
23 Ar 8.91167 4.38602 4.39751
24 Ar 8.89197 4.40825 8.86072
25 Ar 8.91565 8.83239 0.0413563
26 Ar 8.91417 8.88257 4.41772
27 Ar 8.96434 8.85102 8.88708
28 Ar 0.0233924 2.29151 2.30627
29 Ar 0.002337 2.25695 6.70768
30 Ar -0.0417879 2.19548 11.1151
31 Ar 0.0482071 6.68206 2.19445
32 Ar -0.0176701 6.64701 6.70305
33 Ar -0.0563945 6.66678 11.1598
34 Ar -0.0706224 11.0465 2.21487
35 Ar 0.0241814 11.1185 6.70375
36 Ar -0.0665925 11.1573 11.0552
37 Ar 4.49492 2.26468 2.29659
38 Ar 4.47876 2.20097 6.62004
39 Ar 4.49814 2.30194 11.1027
40 Ar 4.43874 6.61194 2.16698
41 Ar 4.41528 6.72127 6.60405
42 Ar 4.44535 6.72236 11.164
43 Ar 4.42841 11.1605 2.17113
44 Ar 4.37747 11.1891 6.70575
45 Ar 4.51545 11.0801 11.1859
46 Ar 8.89743 2.19125 2.19305
47 Ar 8.95742 2.24569 6.74049
48 Ar 8.90432 2.24418 11.1955
49 Ar 8.96701 6.63157 2.27156
50 Ar 8.93041 6.67475 6.70936
51 Ar 8.89503 6.70917 11.1842
52 Ar 8.82237 11.07 2.19864
53 Ar 8.86157 11.1612 6.60867
54 Ar 8.97279 11.1419 11.1351
55 Ar 2.16101 -0.0594885 2.1924
56 Ar 2.17004 -0.0599362 6.63456
57 Ar 2.26592 -0.029847 11.132
58 Ar 2.20008 4.51271 2.20103
59 Ar 2.19375 4.38732 6.75843
60 Ar 2.29422 4.37677 11.17
61 Ar 2.28857 8.92342 2.21477
62 Ar 2.23078 8.91173 6.63425
63 Ar 2.23639 8.92534 11.1742
64 Ar 6.64764 0.0369841 2.15248
65 Ar 6.73893 0.049825 6.73995
66 Ar 6.66395 0.0242708 11.0701
67 Ar 6.68432 4.51425 2.22262
68 Ar 6.71528 4.42075 6.63752
69 Ar 6.74714 4.47072 11.1297
70 Ar 6.70753 8.96197 2.17641
71 Ar 6.68843 8.85429 6.6425
72 Ar 6.71764 8.82996 11.144
73 Ar 11.1871 -0.052408 2.22361
74 Ar 11.1616 -0.0682939 6.75361
75 Ar 11.1626 0.0531565 11.0789
76 Ar 11.0499 4.45053 2.29094
77 Ar 11.126 4.50591 6.64805
78 Ar 11.092 4.37844 11.1056
79 Ar 11.1321 8.9297 2.26548
80 Ar 11.0735 8.93744 6.67412
81 Ar 11.0757 8.88797 11.1564
82 Ar 2.16435 2.2849 -0.0436811
83 Ar 2.16169 2.18372 4.43281
84 Ar 2.28319 2.19871 8.9593
85 Ar 2.15197 6.7483 -0.0398677
86 Ar 2.27337 6.65955 4.45859
87 Ar 2.30054 6.69211 8.92423
88 Ar 2.20761 11.0794 -0.0709323
89 Ar 2.25024 11.0561 4.37117
90 Ar 2.1884 11.1582 8.82816
91 Ar 6.66135 2.21833 0.0413116
92 Ar 6.67274 2.27797 4.43803
93 Ar 6.66491 2.27849 8.86532
94 Ar 6.63358 6.68142 0.0359986
95 Ar 6.6087 6.60274 4.50724
96 Ar 6.67955 6.67973 8.83457
97 Ar 6.67411 11.1395 -0.0740025
98 Ar 6.62621 11.0593 4.49237
99 Ar 6.72438 11.1579 8.92244
100 Ar 11.1421 2.17963 -0.00531341
101 Ar 11.066 2.15088 4.41121
102 Ar 11.1581 2.26755 8.9788
103 Ar 11.1132 6.64246 -0.00287818
104 Ar 11.1701 6.74749 4.53175
105 Ar 11.0543 6.71164 8.94146
106 Ar 11.1114 11.1898 -0.0727318
107 Ar 11.0997 11.1236 4.49567
108 Ar 11.0692 11.1902 8.83967
ITEM: TIMESTEP
50
ITEM: NUMBER OF ATOMS
108
ITEM: BOX BOUNDS pp pp pp
0.0000000000000000e+00 1.3349999400000000e+01
0.0000000000000000e+00 1.3349999400000000e+01
0.0000000000000000e+00 1.3349999400000000e+01
ITEM: ATOMS id element xu yu zu
1 Ar -0.0725738 0.0661079 0.0902958
2 Ar -0.0881834 -0.0981286 4.36689
3 Ar 0.058074 0.0211903 8.98251
4 Ar 0.053222 4.41842 -0.056829
5 Ar -0.0427683 4.50999 4.54795
6 Ar -0.0643928 4.42362 8.81792
7 Ar -0.0480933 8.8396 0.0726457
8 Ar -0.0511746 8.98108 4.40431
9 Ar 0.0857802 8.98363 8.86657
10 Ar 4.47444 0.00895946 -0.0576857
11 Ar 4.53522 -0.0323093 4.54558
12 Ar 4.5403 0.0853594 8.81602
13 Ar 4.53552 4.5255 -0.0255031
14 Ar 4.37046 4.48643 4.47131
15 Ar 4.4065 4.39322 8.99663
16 Ar 4.41794 8.90662 0.0460794
17 Ar 4.47627 8.90083 4.42444
18 Ar 4.47447 8.87148 8.94629
19 Ar 8.83036 0.00636112 -0.084317
20 Ar 8.91221 -0.0626193 4.48257
21 Ar 8.98951 -0.0253698 8.93025
22 Ar 8.89628 4.37321 -0.0633645
23 Ar 8.91435 4.37206 4.38739
24 Ar 8.89053 4.39999 8.85299
25 Ar 8.91978 8.81761 0.0514257
26 Ar 8.9159 8.87757 4.41054
27 Ar 8.97689 8.84224 8.88439
28 Ar 0.0276227 2.30802 2.32464
29 Ar 0.00145247 2.26144 6.71429
30 Ar -0.049075 2.18959 11.1131
31 Ar 0.0577205 6.68304 2.18932
32 Ar -0.0202031 6.64362 6.71108
33 Ar -0.0689625 6.66441 11.165
34 Ar -0.085801 11.0287 2.21061
35 Ar 0.0289634 11.1169 6.70874
36 Ar -0.0818037 11.1638 11.0405
37 Ar 4.50242 2.27367 2.31215
38 Ar 4.48383 2.19669 6.60704
39 Ar 4.51073 2.3175 11.1
40 Ar 4.43583 6.59931 2.15463
41 Ar 4.407 6.73034 6.59049
42 Ar 4.44485 6.73259 11.1728
43 Ar 4.4247 11.17 2.15844
44 Ar 4.36281 11.2019 6.71358
45 Ar 4.52998 11.07 11.1969
46 Ar 8.89678 2.18192 2.18522
47 Ar 8.97227 2.24907 6.75461
48 Ar 8.90401 2.24696 11.2096
49 Ar 8.9813 6.6223 2.28258
50 Ar 8.93679 6.67383 6.71519
51 Ar 8.89363 6.71497 11.1973
52 Ar 8.80573 11.06 2.19226
53 Ar 8.85153 11.1679 6.59465
54 Ar 8.98837 11.1447 11.1368
55 Ar 2.14746 -0.0724309 2.18435
56 Ar 2.15638 -0.0714658 6.62398
57 Ar 2.27629 -0.0369263 11.1342
58 Ar 2.19476 4.52615 2.19528
59 Ar 2.18827 4.37326 6.77745
60 Ar 2.30791 4.36268 11.1793
61 Ar 2.3025 8.92766 2.21253
62 Ar 2.23198 8.91388 6.62444
63 Ar 2.23742 8.9319 11.1836
64 Ar 6.64168 0.0438077 2.1379
65 Ar 6.75502 0.0613635 6.75386
66 Ar 6.66171 0.0310165 11.0567
67 Ar 6.68738 4.52841 2.22221
68 Ar 6.72331 4.41453 6.62947
69 Ar 6.76347 4.47676 11.1299
70 Ar 6.71324 8.97386 2.16607
71 Ar 6.69147 8.84506 6.63613
72 Ar 6.72827 8.81475 11.1479
73 Ar 11.1977 -0.0649736 2.22262
74 Ar 11.1713 -0.081029 6.77061
75 Ar 11.1705 0.0651198 11.0691
76 Ar 11.0354 4.45041 2.30488
77 Ar 11.1247 4.51745 6.64188
78 Ar 11.0848 4.36411 11.1019
79 Ar 11.1321 8.93578 2.27352
80 Ar 11.063 8.94664 6.67487
81 Ar 11.0661 8.88614 11.1633
82 Ar 2.15287 2.29638 -0.0516329
83 Ar 2.14772 2.17373 4.42929
84 Ar 2.29569 2.19134 8.97227
85 Ar 2.13635 6.76384 -0.0495471
86 Ar 2.28201 6.65702 4.46038
87 Ar 2.31631 6.69548 8.93053
88 Ar 2.20127 11.0703 -0.0867761
89 Ar 2.25579 11.0416 4.35322
90 Ar 2.18291 11.1659 8.81456
91 Ar 6.65709 2.21799 0.0500141
92 Ar 6.67382 2.28899 4.4352
93 Ar 6.66411 2.29123 8.85819
94 Ar 6.62619 6.68353 0.0447356
95 Ar 6.59527 6.58707 4.51852
96 Ar 6.67983 6.67932 8.81993
97 Ar 6.67503 11.1422 -0.0913332
98 Ar 6.61463 11.0455 4.50159
99 Ar 6.73599 11.1634 8.92725
100 Ar 11.146 2.1702 -0.0044037
101 Ar 11.0533 2.13317 4.40409
102 Ar 11.1647 2.27639 8.99441
103 Ar 11.1107 6.63308 -0.00226774
104 Ar 11.1803 6.76408 4.54933
105 Ar 11.0402 6.71909 8.95157
106 Ar 11.1081 11.204 -0.0884612
107 Ar 11.0928 11.1232 4.50584
108 Ar 11.0574 11.2022 8.82684
ITEM: TIMESTEP
60
ITEM: NUMBER OF ATOMS
108
ITEM: BOX BOUNDS pp pp pp
0.0000000000000000e+00 1.3349999400000000e+01
0.0000000000000000e+00 1.3349999400000000e+01
0.0000000000000000e+00 1.3349999400000000e+01
ITEM: ATOMS id element xu yu zu
1 Ar -0.0822433 0.0764669 0.104399
2 Ar -0.102204 -0.11573 4.3546
3 Ar 0.0689261 0.0263548 8.99468
4 Ar 0.058824 4.41353 -0.0660553
5 Ar -0.0495433 4.52029 4.56362
6 Ar -0.0741999 4.42152 8.80812
7 Ar -0.0587099 8.83179 0.0832964
8 Ar -0.0578724 8.9932 4.39852
9 Ar 0.098755 8.99534 8.86202
10 Ar 4.47635 0.0131053 -0.067748
11 Ar 4.54991 -0.0380602 4.55987
12 Ar 4.55427 0.0990017 8.80299
13 Ar 4.54893 4.53648 -0.0299632
14 Ar 4.35494 4.49053 4.47578
15 Ar 4.40154 4.38704 9.01008
16 Ar 4.41425 8.90739 0.0544382
17 Ar 4.48183 8.90077 4.41792
18 Ar 4.47952 8.86927 8.9533
19 Ar 8.81939 0.00687154 -0.0981163
20 Ar 8.91205 -0.0724812 4.48604
21 Ar 9.00342 -0.0262703 8.93658
22 Ar 8.89615 4.36162 -0.0711544
23 Ar 8.91677 4.3593 4.37921
24 Ar 8.88947 4.39312 8.84657
25 Ar 8.92407 8.80413 0.0613399
26 Ar 8.91651 8.87222 4.40392
27 Ar 8.98715 8.83562 8.8821
28 Ar 0.0307727 2.32439 2.34173
29 Ar -0.00033419 2.26379 6.71994
30 Ar -0.0543122 2.1847 11.1114
31 Ar 0.0656487 6.68356 2.18578
32 Ar -0.021544 6.64243 6.7198
33 Ar -0.080635 6.66191 11.1681
34 Ar -0.0993727 11.012 2.20527
35 Ar 0.0328783 11.1152 6.71233
36 Ar -0.096115 11.1693 11.0274
37 Ar 4.5077 2.28211 2.32632
38 Ar 4.48762 2.1935 6.59454
39 Ar 4.52373 2.3307 11.0989
40 Ar 4.43278 6.5886 2.1437
41 Ar 4.39899 6.738 6.57957
42 Ar 4.44474 6.74184 11.1812
43 Ar 4.42202 11.1798 2.14619
44 Ar 4.35029 11.2128 6.72142
45 Ar 4.54334 11.0604 11.2053
46 Ar 8.89614 2.17209 2.17751
47 Ar 8.98741 2.25131 6.76728
48 Ar 8.90289 2.24843 11.2214
49 Ar 8.99406 6.6141 2.29322
50 Ar 8.9424 6.67242 6.71933
51 Ar 8.89223 6.71908 11.2092
52 Ar 8.79085 11.0524 2.18606
53 Ar 8.8413 11.1733 6.5823
54 Ar 9.00228 11.1467 11.1379
55 Ar 2.13531 -0.084215 2.1764
56 Ar 2.14282 -0.0808325 6.61305
57 Ar 2.28669 -0.0437708 11.1366
58 Ar 2.19003 4.53816 2.18966
59 Ar 2.18423 4.36022 6.79531
60 Ar 2.31942 4.35128 11.1874
61 Ar 2.31515 8.93085 2.21042
62 Ar 2.23304 8.9156 6.61488
63 Ar 2.23737 8.9385 11.1909
64 Ar 6.63621 0.0491304 2.12547
65 Ar 6.77117 0.0723692 6.76635
66 Ar 6.65977 0.0381502 11.0434
67 Ar 6.6909 4.54133 2.22193
68 Ar 6.73017 4.40893 6.62221
69 Ar 6.77868 4.48332 11.1295
70 Ar 6.71734 8.98356 2.15682
71 Ar 6.69433 8.83711 6.63081
72 Ar 6.73882 8.80099 11.1512
73 Ar 11.2053 -0.077177 2.22128
74 Ar 11.1812 -0.0909894 6.78577
75 Ar 11.1773 0.076181 11.0605
76 Ar 11.0238 4.45003 2.31725
77 Ar 11.1224 4.5275 6.63611
78 Ar 11.0783 4.35206 11.0988
79 Ar 11.1311 8.94095 2.2803
80 Ar 11.054 8.95573 6.67621
81 Ar 11.0583 8.88498 11.1697
82 Ar 2.14361 2.30554 -0.0577017
83 Ar 2.13496 2.16394 4.42633
84 Ar 2.3069 2.18351 8.98413
85 Ar 2.12239 6.77762 -0.0590228
86 Ar 2.28846 6.65533 4.46186
87 Ar 2.33019 6.6983 8.93691
88 Ar 2.19377 11.0626 -0.101349
89 Ar 2.26091 11.0288 4.33644
90 Ar 2.17957 11.1732 8.80366
91 Ar 6.65232 2.21853 0.0576883
92 Ar 6.67587 2.2986 4.43244
93 Ar 6.66429 2.30362 8.85201
94 Ar 6.62069 6.68604 0.0532419
95 Ar 6.58377 6.57286 4.52795
96 Ar 6.6796 6.67796 8.80637
97 Ar 6.67673 11.1444 -0.107843
98 Ar 6.60348 11.0333 4.50992
99 Ar 6.74714 11.1671 8.93157
100 Ar 11.1495 2.16199 -0.00217321
101 Ar 11.0419 2.11599 4.39849
102 Ar 11.1704 2.28403 9.00737
103 Ar 11.1084 6.62295 -0.000847148
104 Ar 11.19 6.77971 4.5651
105 Ar 11.0284 6.72534 8.9615
106 Ar 11.105 11.2171 -0.102611
107 Ar 11.0857 11.1227 4.51521
108 Ar 11.0468 11.2115 8.81554
ITEM: TIMESTEP
70
ITEM: NUMBER OF ATOMS
108
ITEM: BOX BOUNDS pp pp pp
0.0000000000000000e+00 1.3349999400000000e+01
0.0000000000000000e+00 1.3349999400000000e+01
0.0000000000000000e+00 1.3349999400000000e+01
ITEM: ATOMS id element xu yu zu
1 Ar -0.0894635 0.085446 0.116475
2 Ar -0.114301 -0.132313 4.3444
3 Ar 0.0794002 0.0319177 9.00463
4 Ar 0.0619732 4.40945 -0.0742672
5 Ar -0.0553229 4.52971 4.57735
6 Ar -0.0825895 4.42094 8.80152
7 Ar -0.0698246 8.82601 0.0919836
8 Ar -0.0628206 9.00334 4.39443
9 Ar 0.109742 9.00456 8.85852
10 Ar 4.47692 0.0182803 -0.0770966
11 Ar 4.5635 -0.0434456 4.5718
12 Ar 4.56624 0.111004 8.79175
13 Ar 4.56053 4.54532 -0.0342
14 Ar 4.33968 4.49303 4.48033
15 Ar 4.39838 4.38344 9.02062
16 Ar 4.41191 8.90792 0.0622676
17 Ar 4.48748 8.9005 4.41074
18 Ar 4.48466 8.86874 8.95919
19 Ar 8.80981 0.00701769 -0.110428
20 Ar 8.9106 -0.0809772 4.48796
21 Ar 9.01524 -0.0251065 8.943
22 Ar 8.89637 4.35194 -0.0763732
23 Ar 8.91887 4.34783 4.37324
24 Ar 8.88888 4.38788 8.84164
25 Ar 8.92856 8.79214 0.0710733
26 Ar 8.91582 8.86656 4.39797
27 Ar 8.99476 8.83143 8.88029
28 Ar 0.0326456 2.34051 2.35729
29 Ar -0.00312889 2.26381 6.72452
30 Ar -0.0571856 2.18099 11.1102
31 Ar 0.071772 6.6836 2.18403
32 Ar -0.0215353 6.6437 6.72931
33 Ar -0.09131 6.6593 11.1689
34 Ar -0.111078 10.9969 2.19874
35 Ar 0.0357777 11.1135 6.71436
36 Ar -0.109392 11.1737 11.0161
37 Ar 4.51053 2.28994 2.33891
38 Ar 4.49 2.19155 6.58264
39 Ar 4.53718 2.34123 11.0999
40 Ar 4.42952 6.58008 2.13445
41 Ar 4.39129 6.74412 6.57162
42 Ar 4.44505 6.75001 11.1889
43 Ar 4.42051 11.19 2.13444
44 Ar 4.3402 11.2215 6.72925
45 Ar 4.55533 11.0515 11.2109
46 Ar 8.89552 2.16175 2.16994
47 Ar 9.00286 2.25227 6.77829
48 Ar 8.90086 2.24842 11.2307
49 Ar 9.00509 6.60715 2.30341
50 Ar 8.94713 6.67051 6.72161
51 Ar 8.89089 6.72127 11.2199
52 Ar 8.77802 11.0475 2.18007
53 Ar 8.8309 11.1769 6.5719
54 Ar 9.01426 11.1478 11.1383
55 Ar 2.12471 -0.094695 2.16858
56 Ar 2.12941 -0.087761 6.60173
57 Ar 2.29711 -0.0503448 11.1391
58 Ar 2.18596 4.54855 2.18418
59 Ar 2.18179 4.34834 6.81183
60 Ar 2.32851 4.34292 11.1942
61 Ar 2.32626 8.93282 2.20839
62 Ar 2.23396 8.91687 6.60566
63 Ar 2.23614 8.9451 11.1959
64 Ar 6.63128 0.0527624 2.11544
65 Ar 6.78735 0.0827958 6.7772
66 Ar 6.65817 0.0456805 11.0304
67 Ar 6.69492 4.5528 2.22181
68 Ar 6.73576 4.404 6.61587
69 Ar 6.79256 4.49045 11.1284
70 Ar 6.71956 8.99081 2.14878
71 Ar 6.69701 8.83054 6.62667
72 Ar 6.74921 8.7889 11.154
73 Ar 11.2093 -0.0889527 2.21955
74 Ar 11.1914 -0.0977745 6.79872
75 Ar 11.183 0.0861716 11.0531
76 Ar 11.0154 4.44928 2.32785
77 Ar 11.119 4.53586 6.63085
78 Ar 11.0725 4.34262 11.0967
79 Ar 11.1286 8.94503 2.28569
80 Ar 11.0466 8.96466 6.67821
81 Ar 11.0523 8.88453 11.1755
82 Ar 2.13682 2.31203 -0.0616114
83 Ar 2.12363 2.15437 4.42406
84 Ar 2.31668 2.17519 8.99473
85 Ar 2.11031 6.78938 -0.0682452
86 Ar 2.2924 6.65461 4.46296
87 Ar 2.34196 6.70055 8.94336
88 Ar 2.18502 11.0566 -0.114409
89 Ar 2.26554 11.0181 4.32106
90 Ar 2.17862 11.18 8.79583
91 Ar 6.64702 2.22009 0.0641987
92 Ar 6.67899 2.30662 4.42975
93 Ar 6.66551 2.31562 8.84686
94 Ar 6.61735 6.68903 0.0614416
95 Ar 6.57444 6.56029 4.5353
96 Ar 6.67882 6.67556 8.79404
97 Ar 6.67933 11.1459 -0.123358
98 Ar 6.59288 11.0229 4.51725
99 Ar 6.75775 11.1691 8.93534
100 Ar 11.1527 2.15522 0.00149339
101 Ar 11.032 2.09942 4.39454
102 Ar 11.1749 2.29031 9.01729
103 Ar 11.1066 6.612 0.00147489
104 Ar 11.1989 6.79428 4.57882
105 Ar 11.0193 6.73016 8.97118
106 Ar 11.102 11.229 -0.114926
107 Ar 11.0783 11.1222 4.52365
108 Ar 11.0379 11.2175 8.80604
ITEM: TIMESTEP
80
ITEM: NUMBER OF ATOMS
108
ITEM: BOX BOUNDS pp pp pp
0.0000000000000000e+00 1.3349999400000000e+01
0.0000000000000000e+00 1.3349999400000000e+01
0.0000000000000000e+00 1.3349999400000000e+01
ITEM: ATOMS id element xu yu zu
1 Ar -0.0940034 0.0929341 0.126296
2 Ar -0.124238 -0.147763 4.33643
3 Ar 0.0894459 0.0378503 9.01215
4 Ar 0.0624874 4.40627 -0.0813761
5 Ar -0.0599515 4.53816 4.58899
6 Ar -0.0894666 4.42199 8.79837
7 Ar -0.0814659 8.82234 0.0984848
8 Ar -0.0658687 9.01138 4.39219
9 Ar 0.118599 9.01106 8.85616
10 Ar 4.47613 0.0244886 -0.0856538
11 Ar 4.57591 -0.048416 4.58115
12 Ar 4.57604 0.121232 8.7824
13 Ar 4.57015 4.55179 -0.0382213
14 Ar 4.32477 4.49377 4.48493
15 Ar 4.39715 4.38262 9.028
16 Ar 4.411 8.90823 0.0694295
17 Ar 4.49317 8.89994 4.40288
18 Ar 4.48989 8.86996 8.96385
19 Ar 8.80173 0.00677782 -0.121122
20 Ar 8.90774 -0.0879658 4.48819
21 Ar 9.02474 -0.0217267 8.94946
22 Ar 8.89698 4.34435 -0.0787228
23 Ar 8.9206 4.33776 4.36971
24 Ar 8.88884 4.38446 8.83832
25 Ar 8.93327 8.78177 0.0805907
26 Ar 8.91373 8.8606 4.39276
27 Ar 8.99944 8.82983 8.87902
28 Ar 0.0330696 2.35628 2.37114
29 Ar -0.00700013 2.26139 6.72793
30 Ar -0.057455 2.17861 11.1096
31 Ar 0.0759142 6.68317 2.18422
32 Ar -0.0200698 6.64757 6.73971
33 Ar -0.100898 6.65662 11.1673
34 Ar -0.120699 10.9835 2.19093
35 Ar 0.0375553 11.1116 6.71469
36 Ar -0.121515 11.1768 11.0067
37 Ar 4.51076 2.29711 2.34981
38 Ar 4.49087 2.19093 6.57144
39 Ar 4.55109 2.34887 11.1031
40 Ar 4.42601 6.5739 2.1271
41 Ar 4.38397 6.74863 6.56693
42 Ar 4.4458 6.75703 11.196
43 Ar 4.42025 11.2005 2.12321
44 Ar 4.33276 11.2277 6.73697
45 Ar 4.56578 11.0434 11.2135
46 Ar 8.89494 2.1509 2.16257
47 Ar 9.01858 2.25183 6.78745
48 Ar 8.89789 2.24684 11.2372
49 Ar 9.01424 6.6016 2.31311
50 Ar 8.9509 6.66811 6.7219
51 Ar 8.88972 6.7214 11.2292
52 Ar 8.76743 11.0456 2.17435
53 Ar 8.82039 11.1788 6.56371
54 Ar 9.02408 11.1479 11.1379
55 Ar 2.11574 -0.103746 2.16096
56 Ar 2.11627 -0.0920667 6.58996
57 Ar 2.3075 -0.0566128 11.1418
58 Ar 2.18262 4.55714 2.17882
59 Ar 2.18105 4.33775 6.82688
60 Ar 2.33501 4.33787 11.1994
61 Ar 2.33563 8.93343 2.2064
62 Ar 2.23474 8.91772 6.59683
63 Ar 2.23367 8.95162 11.1984
64 Ar 6.6269 0.0545712 2.108
65 Ar 6.80352 0.0926161 6.78629
66 Ar 6.65692 0.0535777 11.0178
67 Ar 6.69944 4.56262 2.22187
68 Ar 6.74001 4.39977 6.61052
69 Ar 6.80492 4.49817 11.1265