ITEM: TIMESTEP
56000
ITEM: NUMBER OF ATOMS
108
ITEM: BOX BOUNDS pp pp pp
0.0000000000000000e+00 1.3349999400000000e+01
0.0000000000000000e+00 1.3349999400000000e+01
0.0000000000000000e+00 1.3349999400000000e+01
ITEM: ATOMS id element xu yu zu
1 Ar 0.0996417 -0.0923506 0.0534561
2 Ar -0.0381156 0.134892 4.33583
3 Ar -0.0435335 0.100645 8.6404
4 Ar -0.322781 4.57451 0.0468077
5 Ar 0.138891 4.40239 4.43514
6 Ar -0.0149687 4.3791 8.90788
7 Ar -0.0302079 9.02676 -0.146235
8 Ar -0.128404 8.68581 4.64991
9 Ar 0.114542 8.71283 8.77165
10 Ar 4.27452 -0.0382751 -0.0746638
11 Ar 4.55108 0.00412984 4.44121
12 Ar 4.45416 0.228838 8.96253
13 Ar 4.58922 4.65782 0.0890091
14 Ar 4.46276 4.60962 4.54601
15 Ar 4.3934 4.37166 8.96238
16 Ar 4.47877 8.94073 -0.103723
17 Ar 4.54245 8.87288 4.25619
18 Ar 4.35891 9.14579 8.86736
19 Ar 8.9486 -0.048415 0.103732
20 Ar 8.89985 -0.187888 4.49945
21 Ar 9.07481 -0.0900548 8.85767
22 Ar 8.94026 4.48562 0.0406725
23 Ar 8.97253 4.37017 4.5303
24 Ar 8.80386 4.50882 8.91322
25 Ar 8.92439 8.87437 0.0469329
26 Ar 8.81152 8.92405 4.4377
27 Ar 8.90204 8.96731 8.85367
28 Ar 0.0130986 2.31821 2.32458
29 Ar 0.090597 2.37333 6.76509
30 Ar -0.0576081 2.26626 10.971
31 Ar 0.0692029 6.69993 2.10654
32 Ar -0.123857 6.54224 6.77143
33 Ar 0.0589057 6.71483 11.1083
34 Ar -0.117389 11.0116 2.37771
35 Ar 0.0252443 11.1208 6.60056
36 Ar 0.0456214 11.1659 10.9537
37 Ar 4.52783 2.33363 2.41036
38 Ar 4.43287 2.27943 6.86351
39 Ar 4.39655 2.3932 11.3087
40 Ar 4.27043 6.74546 2.19682
41 Ar 4.51964 6.53068 6.70628
42 Ar 4.77396 6.71051 11.1461
43 Ar 4.49223 11.166 2.4994
44 Ar 4.63759 11.1372 6.51777
45 Ar 4.49971 11.276 11.0162
46 Ar 8.93076 2.34774 2.14021
47 Ar 8.88294 2.01478 6.80651
48 Ar 9.02471 2.18893 11.2688
49 Ar 9.01877 6.59689 2.35657
50 Ar 8.85607 6.57422 6.70091
51 Ar 8.77348 6.55244 11.1724
52 Ar 9.03341 11.0237 2.22051
53 Ar 8.62844 10.9595 6.66265
54 Ar 8.81444 11.3158 11.0801
55 Ar 2.47399 -0.0540746 2.23492
56 Ar 2.18863 -0.0139207 6.58218
57 Ar 2.24881 0.073313 11.1363
58 Ar 2.00907 4.67717 2.07933
59 Ar 2.22572 4.37149 6.58292
60 Ar 2.14859 4.48146 11.3566
61 Ar 2.16269 8.84298 2.40034
62 Ar 2.39459 8.69415 6.63037
63 Ar 2.16612 8.85296 11.0606
64 Ar 6.71733 0.168563 2.31035
65 Ar 6.64138 0.0885879 6.73255
66 Ar 6.7474 0.169414 11.0492
67 Ar 6.70952 4.52719 2.16438
68 Ar 6.73283 4.30242 6.74674
69 Ar 6.80229 4.30436 11.0059
70 Ar 6.77911 8.88738 2.18377
71 Ar 6.66397 8.74077 6.71994
72 Ar 6.70654 8.93437 10.9882
73 Ar 11.0488 -0.161379 2.12881
74 Ar 11.0913 -0.143851 6.54831
75 Ar 11.1212 0.0125491 10.9419
76 Ar 11.1862 4.46255 2.37381
77 Ar 11.2388 4.3584 6.51315
78 Ar 11.1148 4.53342 11.1495
79 Ar 11.1727 8.86142 2.17888
80 Ar 10.9057 8.96367 6.70865
81 Ar 11.1736 8.69706 11.0403
82 Ar 1.98478 2.30241 0.0761313
83 Ar 2.32571 2.26991 4.37969
84 Ar 2.19973 2.10318 9.01883
85 Ar 2.25173 6.85939 -0.0267231
86 Ar 2.24266 6.71902 4.41911
87 Ar 2.25689 6.67242 9.15656
88 Ar 2.25112 11.0878 0.0474306
89 Ar 2.06596 11.0628 4.52796
90 Ar 2.39295 11.2016 8.71157
91 Ar 6.4459 2.14194 -0.00841334
92 Ar 6.65978 2.21746 4.51318
93 Ar 6.8275 2.25371 9.02383
94 Ar 6.70908 6.62073 0.0116298
95 Ar 6.70503 6.6731 4.52127
96 Ar 6.61927 6.65928 8.86483
97 Ar 6.6655 11.2093 0.12258
98 Ar 6.72358 11.0825 4.34435
99 Ar 6.49001 11.3497 8.92453
100 Ar 11.2111 2.2291 -0.0254799
101 Ar 11.0786 2.08768 4.32653
102 Ar 10.9816 2.15107 8.87711
103 Ar 10.8886 6.76953 -0.0868308
104 Ar 11.0687 6.80941 4.61306
105 Ar 11.0869 6.61383 8.85002
106 Ar 11.0977 11.1128 -0.226105
107 Ar 11.1725 10.9213 4.4109
108 Ar 11.0997 11.0553 8.85735
ITEM: TIMESTEP
56010
ITEM: NUMBER OF ATOMS
108
ITEM: BOX BOUNDS pp pp pp
0.0000000000000000e+00 1.3349999400000000e+01
0.0000000000000000e+00 1.3349999400000000e+01
0.0000000000000000e+00 1.3349999400000000e+01
ITEM: ATOMS id element xu yu zu
1 Ar 0.107893 -0.0873051 0.0453586
2 Ar -0.0298025 0.120924 4.35105
3 Ar -0.057876 0.110026 8.66138
4 Ar -0.299776 4.5654 0.04958
5 Ar 0.160285 4.39947 4.41967
6 Ar -0.0100642 4.39699 8.91927
7 Ar -0.046714 9.01506 -0.159608
8 Ar -0.133787 8.70965 4.63583
9 Ar 0.131271 8.70197 8.78002
10 Ar 4.27729 -0.0388698 -0.0646136
11 Ar 4.54405 -0.0118442 4.45366
12 Ar 4.42968 0.235338 8.95811
13 Ar 4.58767 4.66392 0.0727932
14 Ar 4.46849 4.61984 4.52773
15 Ar 4.41318 4.35337 8.99663
16 Ar 4.47676 8.92789 -0.114088
17 Ar 4.57642 8.85614 4.25246
18 Ar 4.3381 9.14642 8.87048
19 Ar 8.95114 -0.0319148 0.100416
20 Ar 8.89604 -0.175744 4.50793
21 Ar 9.06705 -0.0860985 8.85505
22 Ar 8.95207 4.46403 0.0495137
23 Ar 8.95949 4.36822 4.53515
24 Ar 8.7977 4.51041 8.89145
25 Ar 8.9208 8.86816 0.0691464
26 Ar 8.81383 8.91936 4.43742
27 Ar 8.8902 8.98399 8.84411
28 Ar 0.0144559 2.33003 2.31137
29 Ar 0.092183 2.38454 6.76216
30 Ar -0.0677001 2.25532 10.9973
31 Ar 0.0693369 6.71263 2.11813
32 Ar -0.130605 6.54935 6.77032
33 Ar 0.0866767 6.69918 11.1025
34 Ar -0.107654 11.0107 2.37595
35 Ar 0.0240488 11.1073 6.59319
36 Ar 0.0344213 11.1483 10.9575
37 Ar 4.53752 2.32805 2.41448
38 Ar 4.42467 2.28429 6.88634
39 Ar 4.39515 2.39193 11.3095
40 Ar 4.27812 6.75487 2.19533
41 Ar 4.51221 6.54348 6.68758
42 Ar 4.76356 6.71201 11.1539
43 Ar 4.47663 11.1697 2.491
44 Ar 4.6228 11.1325 6.5093
45 Ar 4.4699 11.2742 11.0029
46 Ar 8.91094 2.3438 2.14125
47 Ar 8.88924 1.99893 6.79694
48 Ar 9.02386 2.18049 11.2394
49 Ar 9.01908 6.59348 2.36153
50 Ar 8.85786 6.55663 6.70996
51 Ar 8.7955 6.54007 11.172
52 Ar 9.02645 11.0381 2.2463
53 Ar 8.62032 10.9574 6.6765
54 Ar 8.8242 11.2995 11.0758
55 Ar 2.47906 -0.0330783 2.23291
56 Ar 2.17792 0.000764813 6.58097
57 Ar 2.25722 0.079639 11.1377
58 Ar 2.02561 4.68433 2.07657
59 Ar 2.22704 4.38158 6.60829
60 Ar 2.13758 4.48588 11.363
61 Ar 2.1793 8.86445 2.39344
62 Ar 2.38631 8.69639 6.63964
63 Ar 2.1832 8.83491 11.0744
64 Ar 6.72767 0.180572 2.29306
65 Ar 6.6412 0.08275 6.72614
66 Ar 6.75977 0.153154 11.046
67 Ar 6.71293 4.53597 2.16196
68 Ar 6.71579 4.30413 6.74157
69 Ar 6.77404 4.31808 10.9891
70 Ar 6.77787 8.86455 2.16603
71 Ar 6.65898 8.74351 6.72736
72 Ar 6.72363 8.9348 11.0036
73 Ar 11.0617 -0.164182 2.12387
74 Ar 11.0845 -0.141568 6.54525
75 Ar 11.1125 0.0196275 10.9439
76 Ar 11.1794 4.47615 2.3877
77 Ar 11.2457 4.34687 6.51007
78 Ar 11.1182 4.53825 11.1565
79 Ar 11.1682 8.8607 2.18514
80 Ar 10.9064 8.9604 6.7101
81 Ar 11.1919 8.69504 11.0425
82 Ar 2.00002 2.31473 0.06626
83 Ar 2.326 2.25421 4.37377
84 Ar 2.19088 2.09491 9.0052
85 Ar 2.25582 6.86528 -0.0444331
86 Ar 2.24304 6.71833 4.40332
87 Ar 2.24689 6.69357 9.15422
88 Ar 2.25156 11.0999 0.042561
89 Ar 2.0525 11.0632 4.52207
90 Ar 2.38924 11.2093 8.69972
91 Ar 6.43478 2.13896 -0.00141942
92 Ar 6.66263 2.21661 4.52489
93 Ar 6.82745 2.2574 9.03167
94 Ar 6.70128 6.62471 0.00510097
95 Ar 6.72071 6.66971 4.52198
96 Ar 6.62313 6.66741 8.84877
97 Ar 6.66968 11.2086 0.143439
98 Ar 6.71028 11.0951 4.34784
99 Ar 6.49735 11.3674 8.90598
100 Ar 11.2151 2.20249 0.00602021
101 Ar 11.0923 2.09418 4.32493
102 Ar 10.9717 2.16722 8.88269
103 Ar 10.9005 6.75957 -0.0924918
104 Ar 11.0702 6.79567 4.6128
105 Ar 11.1024 6.60892 8.83017
106 Ar 11.0831 11.0981 -0.220006
107 Ar 11.1582 10.9234 4.40266
108 Ar 11.095 11.0355 8.88119
ITEM: TIMESTEP
56020
ITEM: NUMBER OF ATOMS
108
ITEM: BOX BOUNDS pp pp pp
0.0000000000000000e+00 1.3349999400000000e+01
0.0000000000000000e+00 1.3349999400000000e+01
0.0000000000000000e+00 1.3349999400000000e+01
ITEM: ATOMS id element xu yu zu
1 Ar 0.114443 -0.0821054 0.0373421
2 Ar -0.0204348 0.105235 4.36699
3 Ar -0.0723684 0.116691 8.68473
4 Ar -0.274061 4.55604 0.0512056
5 Ar 0.179616 4.39866 4.40483
6 Ar -0.00463285 4.41626 8.9316
7 Ar -0.0626902 9.00253 -0.170615
8 Ar -0.1363 8.7349 4.62077
9 Ar 0.145931 8.69542 8.7882
10 Ar 4.28344 -0.0386315 -0.053555
11 Ar 4.53588 -0.0261517 4.46826
12 Ar 4.40597 0.239813 8.95375
13 Ar 4.58267 4.66675 0.0557761
14 Ar 4.47443 4.6272 4.50689
15 Ar 4.43203 4.33707 9.03121
16 Ar 4.47553 8.91677 -0.122997
17 Ar 4.60974 8.83895 4.25308
18 Ar 4.32045 9.14225 8.87411
19 Ar 8.95209 -0.0144002 0.0953114
20 Ar 8.89217 -0.161873 4.51512
21 Ar 9.05571 -0.083 8.85166
22 Ar 8.96322 4.44119 0.0577957
23 Ar 8.94504 4.36586 4.53981
24 Ar 8.79571 4.5106 8.86905
25 Ar 8.91563 8.86359 0.0887965
26 Ar 8.81685 8.9133 4.43725
27 Ar 8.87696 8.9985 8.83778
28 Ar 0.0156428 2.33956 2.29608
29 Ar 0.0923715 2.39232 6.75649
30 Ar -0.0780652 2.24338 11.026
31 Ar 0.0652287 6.72805 2.1309
32 Ar -0.133917 6.55673 6.76762
33 Ar 0.111407 6.68193 11.0982
34 Ar -0.095305 11.0109 2.37116
35 Ar 0.0214898 11.0927 6.58818
36 Ar 0.0240423 11.1311 10.9607
37 Ar 4.54549 2.3236 2.41534
38 Ar 4.41654 2.28859 6.90514
39 Ar 4.39241 2.38947 11.3088
40 Ar 4.28961 6.76336 2.19356
41 Ar 4.50342 6.55772 6.67082
42 Ar 4.74873 6.71267 11.1602
43 Ar 4.46041 11.172 2.47734
44 Ar 4.60577 11.1272 6.50115
45 Ar 4.43932 11.2712 10.9929
46 Ar 8.89085 2.33815 2.14336
47 Ar 8.89638 1.98661 6.784
48 Ar 9.02204 2.17307 11.2102
49 Ar 9.01796 6.591 2.36568
50 Ar 8.86035 6.54009 6.71871
51 Ar 8.81756 6.53059 11.1694
52 Ar 9.01756 11.053 2.27109
53 Ar 8.61411 10.9589 6.69048
54 Ar 8.8338 11.2798 11.0724
55 Ar 2.4796 -0.010991 2.23194
56 Ar 2.16884 0.0166482 6.57921
57 Ar 2.26327 0.0844549 11.139
58 Ar 2.04674 4.6873 2.07395
59 Ar 2.22938 4.39426 6.63617
60 Ar 2.12756 4.49034 11.3679
61 Ar 2.19508 8.88902 2.38367
62 Ar 2.37674 8.70033 6.64857
63 Ar 2.20227 8.82125 11.0889
64 Ar 6.73801 0.190052 2.27478
65 Ar 6.64085 0.0763385 6.71939
66 Ar 6.77077 0.135505 11.0455
67 Ar 6.71626 4.54403 2.16229
68 Ar 6.69811 4.30674 6.73558
69 Ar 6.74431 4.33349 10.9769
70 Ar 6.77513 8.84083 2.14792
71 Ar 6.65229 8.74796 6.73436
72 Ar 6.74138 8.93711 11.0202
73 Ar 11.0767 -0.164905 2.12045
74 Ar 11.0787 -0.139178 6.5426
75 Ar 11.1065 0.0256594 10.9494
76 Ar 11.1723 4.49061 2.40118
77 Ar 11.2497 4.33472 6.50874
78 Ar 11.121 4.54185 11.1615
79 Ar 11.1637 8.85868 2.1911
80 Ar 10.9099 8.95625 6.7118
81 Ar 11.2082 8.69599 11.0434
82 Ar 2.01759 2.32656 0.0568107
83 Ar 2.32611 2.23817 4.36887
84 Ar 2.18182 2.09038 8.99056
85 Ar 2.25946 6.87021 -0.0626241
86 Ar 2.24236 6.71609 4.38978
87 Ar 2.24035 6.7111 9.14747
88 Ar 2.25172 11.1104 0.0377007
89 Ar 2.04185 11.0636 4.51536
90 Ar 2.3818 11.2182 8.68893
91 Ar 6.42738 2.1373 0.00658021
92 Ar 6.66679 2.21702 4.53681
93 Ar 6.82601 2.25903 9.03697
94 Ar 6.69569 6.63121 -0.000351711
95 Ar 6.7365 6.66516 4.5209
96 Ar 6.62735 6.67554 8.83339
97 Ar 6.67322 11.2079 0.162823
98 Ar 6.69782 11.1081 4.35185
99 Ar 6.50746 11.3828 8.88677
100 Ar 11.2192 2.17473 0.0381142
101 Ar 11.1052 2.10112 4.3251
102 Ar 10.9642 2.18668 8.88738
103 Ar 10.9162 6.74842 -0.0958174
104 Ar 11.0714 6.77911 4.61056
105 Ar 11.1167 6.60392 8.81119
106 Ar 11.0694 11.0833 -0.213151
107 Ar 11.1426 10.9278 4.39661
108 Ar 11.0922 11.0159 8.90501
ITEM: TIMESTEP
56030
ITEM: NUMBER OF ATOMS
108
ITEM: BOX BOUNDS pp pp pp
0.0000000000000000e+00 1.3349999400000000e+01
0.0000000000000000e+00 1.3349999400000000e+01
0.0000000000000000e+00 1.3349999400000000e+01
ITEM: ATOMS id element xu yu zu
1 Ar 0.11929 -0.0768778 0.029457
2 Ar -0.0103413 0.0882398 4.38322
3 Ar -0.0869911 0.120555 8.70997
4 Ar -0.246257 4.54656 0.0519446
5 Ar 0.196833 4.39994 4.39099
6 Ar 0.00130103 4.43624 8.94477
7 Ar -0.0777149 8.98928 -0.178954
8 Ar -0.136098 8.76094 4.60489
9 Ar 0.158174 8.69346 8.79621
10 Ar 4.29296 -0.0376659 -0.0417838
11 Ar 4.5267 -0.0384552 4.48452
12 Ar 4.38366 0.241944 8.94957
13 Ar 4.57441 4.6663 0.0383689
14 Ar 4.48032 4.63159 4.48386
15 Ar 4.44935 4.3233 9.06536
16 Ar 4.47522 8.90778 -0.130294
17 Ar 4.64191 8.82177 4.25794
18 Ar 4.30639 9.13347 8.87824
19 Ar 8.95156 0.0037139 0.0884122
20 Ar 8.88826 -0.146437 4.52083
21 Ar 9.04128 -0.0808646 8.84765
22 Ar 8.97354 4.41746 0.0651783
23 Ar 8.92942 4.36298 4.54429
24 Ar 8.79767 4.50925 8.84659
25 Ar 8.90933 8.86051 0.105665
26 Ar 8.82035 8.90606 4.43732
27 Ar 8.86253 9.01034 8.83483
28 Ar 0.0168021 2.34653 2.2791
29 Ar 0.091201 2.39661 6.74831
30 Ar -0.0884971 2.2308 11.0565
31 Ar 0.0574038 6.74574 2.14449
32 Ar -0.133636 6.56433 6.76293
33 Ar 0.132386 6.66351 11.0957
34 Ar -0.0807475 11.0122 2.36328
35 Ar 0.0174174 11.0775 6.58587
36 Ar 0.0147796 11.1147 10.9633
37 Ar 4.55177 2.32034 2.41313
38 Ar 4.40866 2.29246 6.91948
39 Ar 4.38837 2.3855 11.3068
40 Ar 4.30461 6.77077 2.19122
41 Ar 4.4934 6.57309 6.65619
42 Ar 4.72985 6.71272 11.1644
43 Ar 4.44385 11.1729 2.45885
44 Ar 4.58657 11.1212 6.49358
45 Ar 4.40867 11.2671 10.9861
46 Ar 8.87093 2.33096 2.14685
47 Ar 8.90416 1.97815 6.76799
48 Ar 9.01923 2.16711 11.1818
49 Ar 9.01549 6.58946 2.36878
50 Ar 8.86357 6.52505 6.72681
51 Ar 8.83926 6.52395 11.1645
52 Ar 9.00669 11.0684 2.29447
53 Ar 8.61005 10.9641 6.70396
54 Ar 8.84311 11.2572 11.0703
55 Ar 2.47554 0.0119461 2.23198
56 Ar 2.16126 0.033393 6.57703
57 Ar 2.26679 0.0877922 11.1401
58 Ar 2.07215 4.68639 2.07134
59 Ar 2.23284 4.40942 6.66604
60 Ar 2.11888 4.49458 11.371
61 Ar 2.21004 8.91608 2.37114
62 Ar 2.36591 8.70589 6.65663
63 Ar 2.22295 8.81249 11.1039
64 Ar 6.74799 0.196729 2.25618
65 Ar 6.6401 0.0696166 6.71238
66 Ar 6.78008 0.116606 11.0476
67 Ar 6.7193 4.55131 2.16513
68 Ar 6.67984 4.31019 6.72896
69 Ar 6.71416 4.35053 10.9697
70 Ar 6.77093 8.81673 2.12999
71 Ar 6.64401 8.75413 6.74068
72 Ar 6.75941 8.94114 11.0379
73 Ar 11.0937 -0.16371 2.11867
74 Ar 11.0744 -0.136915 6.54065
75 Ar 11.1029 0.0303949 10.9584
76 Ar 11.165 4.50561 2.41396
77 Ar 11.251 4.3222 6.50902
78 Ar 11.1235 4.54397 11.1644
79 Ar 11.1592 8.85549 2.19668
80 Ar 10.9159 8.95131 6.71365
81 Ar 11.2222 8.69941 11.0426
82 Ar 2.0374 2.33766 0.048029
83 Ar 2.32614 2.22228 4.36519
84 Ar 2.17221 2.08987 8.97544
85 Ar 2.26253 6.87394 -0.0803877
86 Ar 2.24063 6.71274 4.37864
87 Ar 2.23786 6.72441 9.13616
88 Ar 2.25149 11.1191 0.0328345
89 Ar 2.03434 11.0642 4.50801
90 Ar 2.37052 11.2283 8.67924
91 Ar 6.42379 2.13719 0.0150608
92 Ar 6.6719 2.21849 4.54868
93 Ar 6.82323 2.25836 9.03955
94 Ar 6.6926 6.63983 -0.00493054
95 Ar 6.75234 6.65947 4.51823
96 Ar 6.63162 6.68359 8.8192
97 Ar 6.67611 11.2073 0.180461
98 Ar 6.68643 11.1212 4.35612
99 Ar 6.51954 11.3954 8.86754
100 Ar 11.223 2.14647 0.0702837
101 Ar 11.1172 2.10836 4.32684
102 Ar 10.9593 2.20919 8.89108
103 Ar 10.9356 6.7363 -0.0966181
104 Ar 11.0724 6.76016 4.60653
105 Ar 11.1296 6.59897 8.79357
106 Ar 11.0566 11.0689 -0.205469
107 Ar 11.1259 10.9348 4.39289
108 Ar 11.0914 10.9969 8.92837
ITEM: TIMESTEP
56040
ITEM: NUMBER OF ATOMS
108
ITEM: BOX BOUNDS pp pp pp
0.0000000000000000e+00 1.3349999400000000e+01
0.0000000000000000e+00 1.3349999400000000e+01
0.0000000000000000e+00 1.3349999400000000e+01
ITEM: ATOMS id element xu yu zu
1 Ar 0.122483 -0.0717629 0.0217518
2 Ar 0.000117671 0.0703346 4.39938
3 Ar -0.101687 0.121629 8.73663
4 Ar -0.216987 4.53706 0.0520729
5 Ar 0.211925 4.40322 4.37845
6 Ar 0.00769541 4.45622 8.95856
7 Ar -0.0913892 8.97543 -0.184395
8 Ar -0.133412 8.78713 4.58834
9 Ar 0.167741 8.69622 8.80416
10 Ar 4.30572 -0.0360859 -0.0295741
11 Ar 4.51666 -0.0484871 4.50189
12 Ar 4.36331 0.241463 8.94567
13 Ar 4.56321 4.66266 0.0209846
14 Ar 4.48591 4.63298 4.4591
15 Ar 4.46453 4.31247 9.09824
16 Ar 4.47596 8.90128 -0.135834
17 Ar 4.67245 8.80508 4.26682
18 Ar 4.29622 9.12048 8.88283
19 Ar 8.94967 0.0219998 0.0797574
20 Ar 8.88433 -0.129615 4.52487
21 Ar 9.02442 -0.0796957 8.84322
22 Ar 8.98292 4.3932 0.0713573
23 Ar 8.91294 4.35949 4.54854
24 Ar 8.80325 4.50623 8.82465
25 Ar 8.90235 8.85873 0.119571
26 Ar 8.82408 8.89787 4.43777
27 Ar 8.84717 9.01912 8.83525
28 Ar 0.018088 2.35081 2.26088
29 Ar 0.088753 2.39748 6.73791
30 Ar -0.0987845 2.21795 11.0883
31 Ar 0.0465288 6.76517 2.15856
32 Ar -0.129699 6.57213 6.75594
33 Ar 0.149058 6.6445 11.0948
34 Ar -0.0644716 11.0147 2.3523
35 Ar 0.0117625 11.0619 6.58649
36 Ar 0.00690781 11.0992 10.9654
37 Ar 4.55639 2.31826 2.4081
38 Ar 4.40116 2.29601 6.92907
39 Ar 4.38315 2.37972 11.3038
40 Ar 4.32274 6.77703 2.18807
41 Ar 4.48231 6.58925 6.64376
42 Ar 4.70737 6.71243 11.1662
43 Ar 4.42728 11.1722 2.43608
44 Ar 4.5653 11.1142 6.48688
45 Ar 4.37861 11.2618 10.9823
46 Ar 8.8516 2.32239 2.15201
47 Ar 8.91238 1.97376 6.74929
48 Ar 9.01539 2.16297 11.1548
49 Ar 9.01175 6.58886 2.37062
50 Ar 8.86751 6.51198 6.73394
51 Ar 8.86026 6.5201 11.1574
52 Ar 8.99388 11.0841 2.31604
53 Ar 8.60838 10.9728 6.71631
54 Ar 8.85205 11.232 11.0694
55 Ar 2.46692 0.0354309 2.23291
56 Ar 2.15503 0.0506319 6.57464
57 Ar 2.26765 0.0897352 11.1411
58 Ar 2.1014 4.68201 2.0687
59 Ar 2.23741 4.42686 6.69739
60 Ar 2.11187 4.49826 11.3719
61 Ar 2.22428 8.94487 2.356
62 Ar 2.35385 8.71304 6.66336
63 Ar 2.24472 8.80887 11.1192
64 Ar 6.75724 0.200364 2.2379
65 Ar 6.63877 0.0628606 6.7052
66 Ar 6.78741 0.0966039 11.0525
67 Ar 6.72187 4.55776 2.17015
68 Ar 6.66099 4.31447 6.72192
69 Ar 6.6847 4.36909 10.9674
70 Ar 6.76531 8.79276 2.11276
71 Ar 6.63432 8.76201 6.74608
72 Ar 6.77728 8.94665 11.0562
73 Ar 11.1124 -0.160851 2.11865
74 Ar 11.0717 -0.134963 6.53965
75 Ar 11.1017 0.0336333 10.9706
76 Ar 11.1578 4.52078 2.42571
77 Ar 11.2495 4.3096 6.51076
78 Ar 11.1256 4.54437 11.1655
79 Ar 11.1545 8.85136 2.20183
80 Ar 10.9244 8.94565 6.71558
81 Ar 11.2336 8.70475 11.0402
82 Ar 2.05939 2.34774 0.0401266
83 Ar 2.3261 2.20703 4.36293
84 Ar 2.16173 2.09349 8.96034
85 Ar 2.26495 6.87625 -0.0968011
86 Ar 2.2379 6.70878 4.36995
87 Ar 2.23977 6.73315 9.12034
88 Ar 2.25078 11.1259 0.0279362
89 Ar 2.03024 11.0651 4.50027
90 Ar 2.35545 11.2393 8.67072
91 Ar 6.42402 2.13886 0.0234752
92 Ar 6.67758 2.22078 4.56023
93 Ar 6.81917 2.25529 9.03933
94 Ar 6.69217 6.65 -0.00890505
95 Ar 6.76814 6.65268 4.51426
96 Ar 6.63566 6.69147 8.80668
97 Ar 6.67838 11.2066 0.196118
98 Ar 6.67625 11.1341 4.36043
99 Ar 6.53276 11.4049 8.84894
100 Ar 11.2265 2.11843 0.102019
101 Ar 11.1283 2.11573 4.32989
102 Ar 10.957 2.23431 8.89371
103 Ar 10.9582 6.72343 -0.094805
104 Ar 11.0736 6.73928 4.601
105 Ar 11.1408 6.59425 8.77775
106 Ar 11.0447 11.0551 -0.196872
107 Ar 11.1086 10.9441 4.39153
108 Ar 11.0925 10.9788 8.95082
ITEM: TIMESTEP
56050
ITEM: NUMBER OF ATOMS
108
ITEM: BOX BOUNDS pp pp pp
0.0000000000000000e+00 1.3349999400000000e+01
0.0000000000000000e+00 1.3349999400000000e+01
0.0000000000000000e+00 1.3349999400000000e+01
ITEM: ATOMS id element xu yu zu
1 Ar 0.124117 -0.0669181 0.0142765
2 Ar 0.0105652 0.05188 4.41512
3 Ar -0.116365 0.120009 8.76424
4 Ar -0.186857 4.52766 0.0518728
5 Ar 0.224908 4.40835 4.36741
6 Ar 0.0144856 4.47556 8.97268
7 Ar -0.103354 8.96108 -0.186795
8 Ar -0.128526 8.81292 4.57127
9 Ar 0.17449 8.70365 8.81215
10 Ar 4.32148 -0.0340077 -0.0171723
11 Ar 4.50589 -0.0560561 4.51973
12 Ar 4.34534 0.238197 8.94213
13 Ar 4.54952 4.65604 0.00401686
14 Ar 4.49096 4.63149 4.43313
15 Ar 4.47699 4.30486 9.12893
16 Ar 4.47784 8.89751 -0.139495
17 Ar 4.70087 8.78932 4.27937
18 Ar 4.29005 9.10379 8.88781
19 Ar 8.94661 0.0400329 0.0694303
20 Ar 8.88039 -0.111603 4.52707
21 Ar 9.00581 -0.0793971 8.83859
22 Ar 8.9913 4.36878 0.0760768
23 Ar 8.89593 4.35536 4.55254
24 Ar 8.81195 4.50138 8.80379
25 Ar 8.89522 8.85805 0.130385
26 Ar 8.82785 8.88894 4.43872
27 Ar 8.83117 9.02455 8.83889
28 Ar 0.0196682 2.35235 2.24191
29 Ar 0.0851421 2.39507 6.72559
30 Ar -0.108719 2.20521 11.1209
31 Ar 0.0333575 6.78571 2.17279
32 Ar -0.122146 6.58009 6.74646
33 Ar 0.161053 6.6256 11.0957
34 Ar -0.0470182 11.0182 2.33827
35 Ar 0.0045323 11.0465 6.59013
36 Ar 0.000677357 11.0848 10.9672
37 Ar 4.55946 2.31726 2.40052
38 Ar 4.39417 2.29938 6.93375
39 Ar 4.37694 2.37181 11.2998
40 Ar 4.34353 6.7821 2.18396
41 Ar 4.47037 6.60585 6.63349
42 Ar 4.68183 6.71206 11.1653
43 Ar 4.41106 11.1701 2.4097
44 Ar 4.54211 11.1063 6.48133
45 Ar 4.34974 11.2554 10.9815
46 Ar 8.83332 2.31268 2.15907
47 Ar 8.92086 1.97354 6.72841
48 Ar 9.01049 2.16089 11.1296
49 Ar 9.00683 6.58915 2.37097
50 Ar 8.87215 6.50131 6.73976
51 Ar 8.88026 6.51893 11.1485
52 Ar 8.97921 11.0999 2.33543
53 Ar 8.60938 10.9848 6.72697
54 Ar 8.86056 11.2048 11.0698
55 Ar 2.45393 0.0591036 2.23456
56 Ar 2.15003 0.0679794 6.57225
57 Ar 2.26582 0.0904066 11.1421
58 Ar 2.13393 4.67464 2.06604
59 Ar 2.24304 4.4463 6.72969
60 Ar 2.10687 4.50109 11.3703
61 Ar 2.23787 8.97454 2.3385
62 Ar 2.3406 8.7217 6.66837
63 Ar 2.26699 8.81048 11.1341
64 Ar 6.76536 0.200763 2.22057
65 Ar 6.63672 0.0563464 6.69789
66 Ar 6.79256 0.0756556 11.06
67 Ar 6.72383 4.56333 2.17694
68 Ar 6.64163 4.31961 6.71472
69 Ar 6.6571 4.38896 10.9703
70 Ar 6.75836 8.76947 2.09678
71 Ar 6.62347 8.77162 6.75037
72 Ar 6.79451 8.95337 11.0751
73 Ar 11.1324 -0.156661 2.12052
74 Ar 11.0708 -0.13345 6.53986
75 Ar 11.1023 0.035227 10.9857
76 Ar 11.1509 4.53569 2.43614
77 Ar 11.2454 4.29725 6.51384
78 Ar 11.1276 4.54287 11.1648
79 Ar 11.1497 8.8466 2.20655
80 Ar 10.935 8.93934 6.71752
81 Ar 11.2421 8.71144 11.0361
82 Ar 2.08343 2.35652 0.0332765
83 Ar 2.32603 2.19296 4.36221
84 Ar 2.15016 2.10126 8.94574
85 Ar 2.2666 6.87693 -0.110987
86 Ar 2.23432 6.70467 4.36362
87 Ar 2.24617 6.73719 9.10028
88 Ar 2.2495 11.1308 0.0229667
89 Ar 2.02972 11.0662 4.49238
90 Ar 2.33678 11.251 8.66344
91 Ar 6.428 2.14254 0.0312788
92 Ar 6.68341 2.22362 4.57113
93 Ar 6.81388 2.24985 9.03638
94 Ar 6.69439 6.6611 -0.0126075
95 Ar 6.78377 6.64487 4.50928
96 Ar 6.63927 6.69903 8.79623
97 Ar 6.68007 11.2057 0.209587
98 Ar 6.66732 11.1466 4.36458
99 Ar 6.54627 11.411 8.83157
100 Ar 11.2292 2.09131 0.13282
101 Ar 11.1386 2.1231 4.33397
102 Ar 10.9577 2.26147 8.89523
103 Ar 10.9836 6.71003 -0.0903935
104 Ar 11.075 6.71699 4.59425
105 Ar 11.1502 6.58989 8.76409
106 Ar 11.0338 11.0421 -0.187264
107 Ar 11.0909 10.9559 4.39249
108 Ar 11.0955 10.9622 8.9719
ITEM: TIMESTEP
56060
ITEM: NUMBER OF ATOMS
108
ITEM: BOX BOUNDS pp pp pp
0.0000000000000000e+00 1.3349999400000000e+01
0.0000000000000000e+00 1.3349999400000000e+01
0.0000000000000000e+00 1.3349999400000000e+01
ITEM: ATOMS id element xu yu zu
1 Ar 0.124318 -0.0625176 0.00708644
2 Ar 0.0206252 0.0331937 4.43014
3 Ar -0.130903 0.11587 8.79233
4 Ar -0.156426 4.5185 0.0516241
5 Ar 0.235819 4.41509 4.358
6 Ar 0.021581 4.49364 8.98676
7 Ar -0.113309 8.94638 -0.186106
8 Ar -0.121759 8.83783 4.5538
9 Ar 0.178421 8.71543 8.82032
10 Ar 4.33988 -0.0315453 -0.00479421
11 Ar 4.4945 -0.061049 4.53739
12 Ar 4.33005 0.232082 8.93897
13 Ar 4.53384 4.6467 -0.0121809
14 Ar 4.49528 4.62728 4.40652
15 Ar 4.48618 4.3006 9.15652
16 Ar 4.48099 8.89663 -0.141188
17 Ar 4.72673 8.77489 4.29515
18 Ar 4.28789 9.08401 8.89309
19 Ar 8.94255 0.0574071 0.0575579
20 Ar 8.87651 -0.0926147 4.52729
21 Ar 8.98622 -0.0797847 8.83399
22 Ar 8.99863 4.34458 0.0791396
23 Ar 8.87875 4.35059 4.55621
24 Ar 8.82321 4.49462 8.7845
25 Ar 8.88843 8.85829 0.138038
26 Ar 8.83151 8.87953 4.44029
27 Ar 8.81485 9.02645 8.84541
28 Ar 0.0217239 2.35121 2.22274
29 Ar 0.0805022 2.38962 6.71163
30 Ar -0.118099 2.19294 11.1539
31 Ar 0.0186823 6.8067 2.18687
32 Ar -0.111123 6.58816 6.73443
33 Ar 0.1682 6.60757 11.0981
34 Ar -0.0289453 11.0229 2.32132
35 Ar -0.00420117 11.0314 6.59677
36 Ar -0.00369346 11.0717 10.9689
37 Ar 4.56106 2.31721 2.39065
38 Ar 4.38778 2.30266 6.93349
39 Ar 4.37 2.36146 11.2951
40 Ar 4.36641 6.78597 2.17878
41 Ar 4.45783 6.62253 6.62526
42 Ar 4.65379 6.71185 11.1617
43 Ar 4.39555 11.1668 2.38043
44 Ar 4.51718 11.0974 6.47721
45 Ar 4.32263 11.2482 10.9831
46 Ar 8.81649 2.30207 2.16822
47 Ar 8.92948 1.97748 6.70592
48 Ar 9.00449 2.16104 11.1066
49 Ar 9.00086 6.5903 2.36963
50 Ar 8.87743 6.49345 6.74397
51 Ar 8.89904 6.5203 11.1377
52 Ar 8.96284 11.1157 2.35232
53 Ar 8.61331 10.9997 6.73546
54 Ar 8.86865 11.1762 11.0716
55 Ar 2.43683 0.0825545 2.23672
56 Ar 2.1461 0.0850455 6.57013
57 Ar 2.26132 0.0899532 11.143
58 Ar 2.16913 4.66475 2.06343
59 Ar 2.24962 4.46739 6.7624
60 Ar 2.10414 4.50274 11.366
61 Ar 2.25091 9.00412 2.3189
62 Ar 2.32626 8.73187 6.6714
63 Ar 2.28911 8.81716 11.1483
64 Ar 6.77199 0.197797 2.20474
65 Ar 6.63384 0.0503323 6.6905
66 Ar 6.79535 0.0539225 11.07
67 Ar 6.72507 4.56797 2.18506
68 Ar 6.62181 4.32565 6.70765
69 Ar 6.63247 4.40987 10.9782
70 Ar 6.75016 8.74742 2.08261
71 Ar 6.61179 8.78294 6.7534
72 Ar 6.81058 8.96099 11.0944
73 Ar 11.1534 -0.151536 2.12438
74 Ar 11.0718 -0.132444 6.54149
75 Ar 11.1046 0.0350824 11.0034
76 Ar 11.1446 4.5499 2.44495
77 Ar 11.2391 4.28552 6.51812
78 Ar 11.1296 4.53933 11.1625
79 Ar 11.1446 8.84158 2.2109
80 Ar 10.9474 8.93247 6.71941
81 Ar 11.2477 8.71889 11.0304
82 Ar 2.10936 2.36372 0.0276097
83 Ar 2.32592 2.18058 4.36312
84 Ar 2.13735 2.11305 8.93211
85 Ar 2.26743 6.87583 -0.122171
86 Ar 2.23007 6.70086 4.35949
87 Ar 2.25684 6.73667 9.07646
88 Ar 2.24758 11.134 0.0178707
89 Ar 2.03284 11.0677 4.48464
90 Ar 2.31483 11.263 8.65749
91 Ar 6.43561 2.14843 0.0379592
92 Ar 6.68894 2.22675 4.58108
93 Ar 6.80742 2.24219 9.03084
94 Ar 6.69912 6.67241 -0.0164187
95 Ar 6.79906 6.63614 4.50364
96 Ar 6.64228 6.70611 8.78817
97 Ar 6.68127 11.2047 0.220687
98 Ar 6.65963 11.1585 4.3684
99 Ar 6.55927 11.4136 8.81601
100 Ar 11.2311 2.06586 0.1622
101 Ar 11.1481 2.13034 4.3388
102 Ar 10.9612 2.29003 8.89566
103 Ar 11.0112 6.6963 -0.083501
104 Ar 11.0769 6.69382 4.58663
105 Ar 11.1577 6.58605 8.75282
106 Ar 11.0241 11.0302 -0.176553
107 Ar 11.0734 10.9698 4.39565
108 Ar 11.1 10.9472 8.99117
ITEM: TIMESTEP
56070
ITEM: NUMBER OF ATOMS
108
ITEM: BOX BOUNDS pp pp pp
0.0000000000000000e+00 1.3349999400000000e+01
0.0000000000000000e+00 1.3349999400000000e+01
0.0000000000000000e+00 1.3349999400000000e+01
ITEM: ATOMS id element xu yu zu
1 Ar 0.123238 -0.0587481 0.000244395
2 Ar 0.02994 0.014544 4.44418
3 Ar -0.145158 0.109457 8.82048
4 Ar -0.126196 4.50969 0.0515935
5 Ar 0.244714 4.42316 4.35027
6 Ar 0.028863 4.50992 9.00039
7 Ar -0.121021 8.93149 -0.182385
8 Ar -0.113445 8.86149 4.53606
9 Ar 0.179678 8.7311 8.82879
10 Ar 4.36049 -0.0288031 0.00737269
11 Ar 4.4826 -0.0634312 4.55421
12 Ar 4.31761 0.223177 8.93617
13 Ar 4.51674 4.635 -0.0273145
14 Ar 4.49866 4.6206 4.37985
15 Ar 4.49169 4.2997 9.18015
16 Ar 4.48546 8.89866 -0.140871
17 Ar 4.74962 8.76214 4.31361
18 Ar 4.28962 9.06182 8.89855
19 Ar 8.93771 0.0737493 0.044311
20 Ar 8.87275 -0.072874 4.52544
21 Ar 8.96639 -0.0806055 8.82966
22 Ar 9.00492 4.32092 0.0804155
23 Ar 8.86179 4.34523 4.5595
24 Ar 8.83638 4.4859 8.76722
25 Ar 8.88248 8.85928 0.142531
26 Ar 8.83495 8.86988 4.44258
27 Ar 8.79855 9.02478 8.85436
28 Ar 0.024444 2.34753 2.20396
29 Ar 0.0749723 2.38142 6.69634
30 Ar -0.126736 2.18151 11.1866
31 Ar 0.00329622 6.82751 2.20054
32 Ar -0.096889 6.5963 6.71993
33 Ar 0.170518 6.5912 11.1018
34 Ar -0.0107974 11.0287 2.30165
35 Ar -0.014315 11.0171 6.60626
36 Ar -0.00602925 11.06 10.9708
37 Ar 4.56133 2.3179 2.3788
38 Ar 4.38205 2.30595 6.92843
39 Ar 4.36264 2.34845 11.2897
40 Ar 4.39078 6.78867 2.17255
41 Ar 4.44497 6.63897 6.61893
42 Ar 4.62385 6.71205 11.1553
43 Ar 4.38113 11.1624 2.34905
44 Ar 4.49075 11.0875 6.47475
45 Ar 4.29776 11.2401 10.9871
46 Ar 8.80149 2.2908 2.17957
47 Ar 8.9381 1.98547 6.68248
48 Ar 8.99741 2.16343 11.086
49 Ar 8.99399 6.59223 2.36642
50 Ar 8.88325 6.4887 6.74634
51 Ar 8.91647 6.52407 11.1255
52 Ar 8.94501 11.1314 2.36643
53 Ar 8.6204 11.0169 6.7414
54 Ar 8.87635 11.1467 11.0747
55 Ar 2.41602 0.105339 2.23912
56 Ar 2.14312 0.101448 6.56859
57 Ar 2.25422 0.0885319 11.1439
58 Ar 2.20633 4.65282 2.06104
59 Ar 2.25698 4.48973 6.795
60 Ar 2.10391 4.50295 11.3587
61 Ar 2.26345 9.03263 2.2975
62 Ar 2.31094 8.74349 6.67226
63 Ar 2.31036 8.82858 11.1611
64 Ar 6.77676 0.191425 2.19091
65 Ar 6.63006 0.0450412 6.68308
66 Ar 6.7957 0.0315703 11.0824
67 Ar 6.72555 4.57163 2.19401
68 Ar 6.60163 4.33267 6.70099
69 Ar 6.61181 4.43146 10.9911
70 Ar 6.74087 8.72719 2.07073
71 Ar 6.59964 8.79595 6.7551
72 Ar 6.82497 8.96917 11.1139
73 Ar 11.175 -0.145916 2.13037
74 Ar 11.0747 -0.131944 6.54473
75 Ar 11.1078 0.033158 11.0234
76 Ar 11.139 4.56291 2.45183
77 Ar 11.2307 4.27478 6.52343
78 Ar 11.1315 4.53369 11.1591
79 Ar 11.139 8.8367 2.21495
80 Ar 10.9614 8.92511 6.7212
81 Ar 11.2503 8.72655 11.0234
82 Ar 2.13698 2.36911 0.0232145
83 Ar 2.32573 2.1704 4.36568
84 Ar 2.12328 2.12857 8.91985
85 Ar 2.2674 6.87287 -0.129736
86 Ar 2.2254 6.69773 4.35729
87 Ar 2.2713 6.73197 9.04953
88 Ar 2.245 11.1356 0.012576
89 Ar 2.03957 11.0697 4.47731
90 Ar 2.29002 11.275 8.65297
91 Ar 6.44671 2.1567 0.0430663
92 Ar 6.69373 2.22991 4.58974
93 Ar 6.79981 2.23257 9.02295
94 Ar 6.70611 6.68322 -0.020744
95 Ar 6.81379 6.62663 4.49771
96 Ar 6.64456 6.71255 8.78272
97 Ar 6.68207 11.2035 0.229261
98 Ar 6.65306 11.1696 4.37178
99 Ar 6.571 11.4125 8.80275
100 Ar 11.2319 2.04277 0.189691
101 Ar 11.1571 2.13732 4.34408
102 Ar 10.9677 2.31923 8.89507
103 Ar 11.0404 6.68242 -0.0743369
104 Ar 11.0794 6.67034 4.57851
105 Ar 11.1633 6.58283 8.74408
106 Ar 11.0155 11.0196 -0.164658
107 Ar 11.0564 10.9856 4.40086
108 Ar 11.1059 10.9344 9.0082
ITEM: TIMESTEP
56080
ITEM: NUMBER OF ATOMS
108
ITEM: BOX BOUNDS pp pp pp
0.0000000000000000e+00 1.3349999400000000e+01
0.0000000000000000e+00 1.3349999400000000e+01
0.0000000000000000e+00 1.3349999400000000e+01
ITEM: ATOMS id element xu yu zu
1 Ar 0.121038 -0.0558013 -0.00617772
2 Ar 0.0381884 -0.00385345 4.45699
3 Ar -0.158976 0.101075 8.84829
4 Ar -0.0965863 4.50134 0.0520246
5 Ar 0.251661 4.43223 4.34417
6 Ar 0.0361857 4.52396 9.01315
7 Ar -0.126339 8.9166 -0.175791
8 Ar -0.103919 8.88368 4.51816
9 Ar 0.178528 8.74997 8.83768
10 Ar 4.3828 -0.025868 0.0191654
11 Ar 4.47031 -0.0632462 4.56959
12 Ar 4.30803 0.211656 8.93366
13 Ar 4.49882 4.62132 -0.0411656
14 Ar 4.50095 4.61177 4.35373
15 Ar 4.49329 4.30204 9.19914
16 Ar 4.49128 8.90351 -0.138555
17 Ar 4.76917 8.75135 4.33413
18 Ar 4.29508 9.03791 8.90407
19 Ar 8.93228 0.0887307 0.0299049
20 Ar 8.8692 -0.0526174 4.52147
21 Ar 8.947 -0.0815632 8.82582
22 Ar 9.01019 4.29814 0.0798464
23 Ar 8.84542 4.33939 4.56232
24 Ar 8.85075 4.4753 8.75225
25 Ar 8.87777 8.86083 0.143949
26 Ar 8.8381 8.86025 4.44566
27 Ar 8.78264 9.01961 8.86516
28 Ar 0.0280147 2.34155 2.18613
29 Ar 0.0686837 2.37083 6.68001
30 Ar -0.134458 2.17124 11.2187
31 Ar -0.0120374 6.84753 2.21359
32 Ar -0.0798022 6.60449 6.7032
33 Ar 0.1682 6.57724 11.1066
34 Ar 0.00692222 11.0356 2.27952
35 Ar -0.025651 11.0039 6.61834
36 Ar -0.00621138 11.0499 10.9733
37 Ar 4.56041 2.31907 2.36521
38 Ar 4.37696 2.30925 6.91882
39 Ar 4.35524 2.33264 11.2839