ITEM: TIMESTEP
74000
ITEM: NUMBER OF ATOMS
108
ITEM: BOX BOUNDS pp pp pp
0.0000000000000000e+00 1.3349999400000000e+01
0.0000000000000000e+00 1.3349999400000000e+01
0.0000000000000000e+00 1.3349999400000000e+01
ITEM: ATOMS id element xu yu zu
1 Ar 0.0603502 -0.0188327 0.0383908
2 Ar 0.130582 0.0961528 4.41505
3 Ar 0.0707662 -0.052912 8.90821
4 Ar 0.418268 4.37821 -0.121888
5 Ar -0.0927571 4.56639 4.47792
6 Ar 0.040405 4.40034 9.06661
7 Ar 0.0450205 8.8745 -0.0490922
8 Ar -0.0540785 8.83194 4.41758
9 Ar -0.175372 9.02635 9.01094
10 Ar 4.41149 -0.0214909 -0.0957678
11 Ar 4.47102 0.0190206 4.67507
12 Ar 4.58433 -0.160363 8.90368
13 Ar 4.46346 4.47746 -0.0628455
14 Ar 4.40111 4.6052 4.44675
15 Ar 4.43894 4.48169 8.81837
16 Ar 4.4146 8.92549 0.0199375
17 Ar 4.50063 8.91145 4.50131
18 Ar 4.52804 8.77482 8.88605
19 Ar 8.89001 -0.0137829 -0.053998
20 Ar 9.18939 0.0688672 4.44366
21 Ar 8.70855 0.0868648 8.86906
22 Ar 8.80459 4.50475 -0.139463
23 Ar 8.8955 4.45119 4.66776
24 Ar 9.07945 4.21936 8.94083
25 Ar 8.96955 8.76558 -0.120147
26 Ar 8.88467 8.88929 4.4846
27 Ar 8.77712 8.89636 8.93813
28 Ar -0.0244517 2.45666 2.06289
29 Ar -0.0862153 2.33357 6.68102
30 Ar 0.0975909 2.16735 11.1894
31 Ar 0.0570671 6.67596 2.35386
32 Ar 0.131667 6.75948 6.77097
33 Ar -0.114035 6.64034 11.1073
34 Ar -0.149184 11.1083 2.23251
35 Ar 0.0397985 11.0738 6.52826
36 Ar -0.104878 11.0207 11.1834
37 Ar 4.43183 2.28947 2.40239
38 Ar 4.41587 2.08507 6.79851
39 Ar 4.40708 2.20872 11.0038
40 Ar 4.62831 6.70091 2.27623
41 Ar 4.34793 6.77726 6.65986
42 Ar 4.45121 6.89673 11.085
43 Ar 4.48056 11.2294 2.23493
44 Ar 4.31038 11.0928 6.61102
45 Ar 4.32824 10.8588 11.1069
46 Ar 8.81412 2.3938 2.36466
47 Ar 8.94871 2.15607 6.6457
48 Ar 8.7004 2.25159 11.2237
49 Ar 8.93044 6.57358 2.30499
50 Ar 9.03006 6.71109 6.71798
51 Ar 8.86876 6.50156 11.0407
52 Ar 8.91535 11.0805 2.22294
53 Ar 8.96988 11.0074 6.72259
54 Ar 8.74584 11.2649 10.9995
55 Ar 2.12227 0.176044 2.05491
56 Ar 2.25715 0.0648338 6.85868
57 Ar 2.07272 -0.216041 11.0623
58 Ar 2.42123 4.4747 2.25201
59 Ar 2.07593 4.46488 6.8059
60 Ar 2.35053 4.56879 10.9755
61 Ar 2.19169 8.90725 2.19263
62 Ar 2.07422 9.00483 6.58656
63 Ar 2.15752 8.94194 11.1995
64 Ar 6.72143 -0.0252197 2.28771
65 Ar 6.91502 -0.288312 6.48526
66 Ar 6.65927 0.0240538 11.1228
67 Ar 6.70888 4.56143 2.19395
68 Ar 6.67739 4.47166 6.71605
69 Ar 6.5434 4.41736 11.0756
70 Ar 6.5293 8.93511 2.3466
71 Ar 6.65275 8.92146 6.64768
72 Ar 6.60795 8.77698 11.3775
73 Ar 11.1731 0.0877309 2.13185
74 Ar 11.2884 -0.0190634 6.5372
75 Ar 11.1235 -0.0129611 11.1946
76 Ar 11.0549 4.38225 2.01854
77 Ar 11.1875 4.28465 6.8382
78 Ar 11.2998 4.67339 11.0997
79 Ar 11.087 8.92782 2.08913
80 Ar 11.2 8.7844 6.78853
81 Ar 10.9568 8.96037 11.0539
82 Ar 2.42288 2.15983 -0.103559
83 Ar 2.26861 2.21039 4.63432
84 Ar 2.24346 2.06403 8.9166
85 Ar 2.32385 6.52031 -0.120682
86 Ar 2.24113 6.62918 4.59171
87 Ar 2.19964 7.03904 8.89443
88 Ar 2.20089 11.0112 0.0641708
89 Ar 2.18215 11.1947 4.32415
90 Ar 2.236 11.1492 9.01197
91 Ar 6.50387 2.2625 0.0722263
92 Ar 6.59955 2.42956 4.49205
93 Ar 6.68566 2.2601 8.91521
94 Ar 6.67253 6.74553 0.0362119
95 Ar 6.87789 6.64844 4.49493
96 Ar 6.61101 6.62172 8.72233
97 Ar 6.59697 11.115 -0.0663442
98 Ar 6.76815 11.1513 4.45134
99 Ar 6.56736 11.0045 8.76168
100 Ar 11.0564 2.33194 -0.154038
101 Ar 11.2094 2.2108 4.28218
102 Ar 11.0286 2.02476 9.11314
103 Ar 11.3174 6.62216 0.0843495
104 Ar 10.9198 6.73093 4.32798
105 Ar 11.1799 6.67365 8.94205
106 Ar 11.135 11.1608 -0.136084
107 Ar 11.093 11.067 4.51561
108 Ar 11.071 11.1609 8.8715
ITEM: TIMESTEP
74010
ITEM: NUMBER OF ATOMS
108
ITEM: BOX BOUNDS pp pp pp
0.0000000000000000e+00 1.3349999400000000e+01
0.0000000000000000e+00 1.3349999400000000e+01
0.0000000000000000e+00 1.3349999400000000e+01
ITEM: ATOMS id element xu yu zu
1 Ar 0.0536751 -0.0230574 0.0503033
2 Ar 0.141341 0.089802 4.40605
3 Ar 0.0439564 -0.0493012 8.9041
4 Ar 0.437975 4.37026 -0.128561
5 Ar -0.107299 4.5587 4.48117
6 Ar 0.0428851 4.40563 9.06564
7 Ar 0.0620508 8.87412 -0.0622378
8 Ar -0.0463341 8.80816 4.4181
9 Ar -0.206631 9.03375 9.00464
10 Ar 4.42291 -0.0414489 -0.102019
11 Ar 4.46391 0.0489031 4.67617
12 Ar 4.59595 -0.133683 8.88476
13 Ar 4.46701 4.48912 -0.0486914
14 Ar 4.39475 4.59372 4.41658
15 Ar 4.43608 4.49185 8.82789
16 Ar 4.40562 8.91135 0.0221391
17 Ar 4.51456 8.91457 4.50285
18 Ar 4.53003 8.7825 8.89309
19 Ar 8.88672 -0.0261051 -0.07047
20 Ar 9.19659 0.0453247 4.44124
21 Ar 8.71635 0.0879355 8.87435
22 Ar 8.78472 4.51522 -0.147511
23 Ar 8.90726 4.44486 4.66131
24 Ar 9.09439 4.22199 8.92871
25 Ar 8.95896 8.77826 -0.118171
26 Ar 8.87554 8.88732 4.49056
27 Ar 8.77259 8.89607 8.96029
28 Ar -0.00156583 2.46032 2.08185
29 Ar -0.0951889 2.32542 6.69538
30 Ar 0.0948648 2.15366 11.1881
31 Ar 0.0534097 6.65667 2.34673
32 Ar 0.120496 6.77034 6.77526
33 Ar -0.106081 6.65559 11.1095
34 Ar -0.140194 11.0916 2.25571
35 Ar 0.0391265 11.0722 6.52591
36 Ar -0.0963705 11.034 11.1705
37 Ar 4.43697 2.28007 2.42229
38 Ar 4.42768 2.08438 6.80826
39 Ar 4.40567 2.22512 11.0065
40 Ar 4.60404 6.6973 2.25384
41 Ar 4.33285 6.77779 6.66657
42 Ar 4.45562 6.89764 11.0863
43 Ar 4.49004 11.2274 2.23488
44 Ar 4.3215 11.1059 6.60282
45 Ar 4.32498 10.865 11.112
46 Ar 8.82564 2.39291 2.36451
47 Ar 8.95008 2.16065 6.63777
48 Ar 8.69332 2.23428 11.237
49 Ar 8.93417 6.57642 2.30686
50 Ar 9.01735 6.71382 6.71799
51 Ar 8.89442 6.49704 11.0299
52 Ar 8.9059 11.0721 2.20537
53 Ar 8.96568 11.0104 6.72498
54 Ar 8.74685 11.2581 11.0089
55 Ar 2.13398 0.160582 2.03478
56 Ar 2.27677 0.0567337 6.87439
57 Ar 2.05888 -0.214531 11.06
58 Ar 2.42309 4.46975 2.24245
59 Ar 2.06391 4.46268 6.79929
60 Ar 2.35882 4.59667 11.0112
61 Ar 2.19878 8.93711 2.19473
62 Ar 2.05091 9.00314 6.59816
63 Ar 2.15393 8.94354 11.1899
64 Ar 6.73761 -0.0359627 2.27537
65 Ar 6.90136 -0.289983 6.49556
66 Ar 6.64272 0.00627946 11.1661
67 Ar 6.72579 4.56142 2.18633
68 Ar 6.68162 4.47572 6.72022
69 Ar 6.54838 4.41131 11.0848
70 Ar 6.51607 8.93612 2.3317
71 Ar 6.65213 8.94095 6.65152
72 Ar 6.60941 8.77124 11.3743
73 Ar 11.1731 0.0992664 2.14471
74 Ar 11.2714 -0.0133642 6.52696
75 Ar 11.1145 -0.0202379 11.2028
76 Ar 11.0555 4.37647 2.0224
77 Ar 11.189 4.29112 6.85792
78 Ar 11.2784 4.68103 11.0757
79 Ar 11.1017 8.95356 2.0913
80 Ar 11.2045 8.78937 6.79443
81 Ar 10.9568 8.97698 11.0425
82 Ar 2.41583 2.16684 -0.0685213
83 Ar 2.26511 2.22686 4.61845
84 Ar 2.24207 2.07423 8.90506
85 Ar 2.32416 6.5277 -0.118016
86 Ar 2.23084 6.62872 4.57496
87 Ar 2.22229 7.01183 8.90399
88 Ar 2.21653 11.0261 0.0629577
89 Ar 2.17137 11.1883 4.3349
90 Ar 2.2266 11.1211 9.00401
91 Ar 6.49013 2.24762 0.0815734
92 Ar 6.5976 2.41195 4.49797
93 Ar 6.70266 2.27608 8.91498
94 Ar 6.67801 6.73654 0.0246016
95 Ar 6.88626 6.67443 4.4738
96 Ar 6.60787 6.62066 8.72424
97 Ar 6.61762 11.1167 -0.0704592
98 Ar 6.7474 11.1513 4.43632
99 Ar 6.55361 11.0134 8.77419
100 Ar 11.0535 2.33787 -0.147831
101 Ar 11.2127 2.22219 4.28212
102 Ar 11.0204 2.01663 9.09824
103 Ar 11.2978 6.60579 0.0884627
104 Ar 10.9308 6.72383 4.31672
105 Ar 11.1783 6.66064 8.93666
106 Ar 11.159 11.1489 -0.14468
107 Ar 11.1008 11.0644 4.51501
108 Ar 11.0748 11.1499 8.87291
ITEM: TIMESTEP
74020
ITEM: NUMBER OF ATOMS
108
ITEM: BOX BOUNDS pp pp pp
0.0000000000000000e+00 1.3349999400000000e+01
0.0000000000000000e+00 1.3349999400000000e+01
0.0000000000000000e+00 1.3349999400000000e+01
ITEM: ATOMS id element xu yu zu
1 Ar 0.0452298 -0.0268434 0.0607158
2 Ar 0.151022 0.0832869 4.39666
3 Ar 0.0141643 -0.0459602 8.89907
4 Ar 0.452078 4.36329 -0.134213
5 Ar -0.121486 4.55016 4.4844
6 Ar 0.0459717 4.41048 9.06267
7 Ar 0.0774173 8.87256 -0.0737373
8 Ar -0.0392489 8.78501 4.41824
9 Ar -0.23413 9.03986 8.99735
10 Ar 4.4344 -0.0621851 -0.107765
11 Ar 4.45671 0.0779161 4.67343
12 Ar 4.6069 -0.106168 8.86689
13 Ar 4.47135 4.50052 -0.0341659
14 Ar 4.39042 4.58109 4.38981
15 Ar 4.43211 4.50214 8.83709
16 Ar 4.3961 8.89648 0.0267113
17 Ar 4.52608 8.9176 4.50361
18 Ar 4.53154 8.79389 8.89876
19 Ar 8.88306 -0.0376489 -0.0842381
20 Ar 9.19952 0.0208007 4.43737
21 Ar 8.72603 0.0868908 8.87966
22 Ar 8.76594 4.52495 -0.15361
23 Ar 8.92086 4.43799 4.65324
24 Ar 9.1061 4.22762 8.91676
25 Ar 8.94792 8.79195 -0.114024
26 Ar 8.8672 8.88679 4.49561
27 Ar 8.76812 8.89484 8.98254
28 Ar 0.0227964 2.462 2.10218
29 Ar -0.102374 2.31436 6.71034
30 Ar 0.0914613 2.14033 11.186
31 Ar 0.0500677 6.63658 2.33678
32 Ar 0.10603 6.7791 6.77927
33 Ar -0.0937099 6.67457 11.1122
34 Ar -0.129854 11.0756 2.27848
35 Ar 0.0374152 11.0728 6.52566
36 Ar -0.0870444 11.049 11.1571
37 Ar 4.44274 2.26862 2.44015
38 Ar 4.442 2.08713 6.81756
39 Ar 4.4044 2.24045 11.0095
40 Ar 4.57659 6.69416 2.23142
41 Ar 4.31893 6.7768 6.67282
42 Ar 4.45973 6.89399 11.088
43 Ar 4.49819 11.2258 2.23544
44 Ar 4.33312 11.1183 6.59563
45 Ar 4.32478 10.8751 11.117
46 Ar 8.83695 2.38969 2.36191
47 Ar 8.95106 2.16478 6.6298
48 Ar 8.68815 2.21672 11.2498
49 Ar 8.93682 6.58109 2.30477
50 Ar 9.00377 6.71547 6.7195
51 Ar 8.91893 6.49498 11.0185
52 Ar 8.89667 11.0642 2.18685
53 Ar 8.96254 11.0137 6.72717
54 Ar 8.74883 11.249 11.0189
55 Ar 2.14805 0.14323 2.01883
56 Ar 2.29408 0.0456112 6.88681
57 Ar 2.04848 -0.210567 11.0603
58 Ar 2.42193 4.46518 2.23302
59 Ar 2.0544 4.4602 6.79243
60 Ar 2.36746 4.62297 11.0448
61 Ar 2.20678 8.965 2.19836
62 Ar 2.03087 9.00149 6.61063
63 Ar 2.14944 8.94339 11.1794
64 Ar 6.75367 -0.0449513 2.26306
65 Ar 6.88528 -0.286207 6.50815
66 Ar 6.62437 -0.0115957 11.2088
67 Ar 6.74167 4.55981 2.17946
68 Ar 6.6854 4.47918 6.72397
69 Ar 6.55368 4.40729 11.0936
70 Ar 6.50674 8.93752 2.31445
71 Ar 6.65197 8.95926 6.65463
72 Ar 6.61392 8.76847 11.3657
73 Ar 11.1727 0.10999 2.15667
74 Ar 11.2539 -0.00729847 6.51995
75 Ar 11.1056 -0.0275669 11.21
76 Ar 11.0572 4.37224 2.02839
77 Ar 11.1898 4.30072 6.87565
78 Ar 11.2538 4.68208 11.0545
79 Ar 11.1163 8.97818 2.0945
80 Ar 11.2077 8.79584 6.79798
81 Ar 10.9574 8.99185 11.0325
82 Ar 2.40844 2.17483 -0.0341409
83 Ar 2.26059 2.24477 4.60111
84 Ar 2.24004 2.08746 8.89537
85 Ar 2.32398 6.5401 -0.112601
86 Ar 2.22005 6.62967 4.55571
87 Ar 2.24336 6.98105 8.91418
88 Ar 2.2318 11.0435 0.061854
89 Ar 2.16177 11.182 4.34539
90 Ar 2.21673 11.0903 8.99258
91 Ar 6.47779 2.23193 0.0912229
92 Ar 6.59641 2.39175 4.50467
93 Ar 6.71845 2.29148 8.91315
94 Ar 6.68362 6.72578 0.0138576
95 Ar 6.89104 6.70017 4.45389
96 Ar 6.60707 6.61994 8.72894
97 Ar 6.63927 11.1183 -0.0730101
98 Ar 6.72625 11.1498 4.4198
99 Ar 6.54113 11.023 8.7893
100 Ar 11.0513 2.34312 -0.141472
101 Ar 11.2164 2.23558 4.28404
102 Ar 11.0148 2.00943 9.08205
103 Ar 11.2768 6.59018 0.0916686
104 Ar 10.9462 6.71565 4.30815
105 Ar 11.1755 6.64808 8.92946
106 Ar 11.181 11.1362 -0.15045
107 Ar 11.1092 11.0611 4.51292
108 Ar 11.0781 11.1412 8.87412
ITEM: TIMESTEP
74030
ITEM: NUMBER OF ATOMS
108
ITEM: BOX BOUNDS pp pp pp
0.0000000000000000e+00 1.3349999400000000e+01
0.0000000000000000e+00 1.3349999400000000e+01
0.0000000000000000e+00 1.3349999400000000e+01
ITEM: ATOMS id element xu yu zu
1 Ar 0.0350427 -0.0301337 0.0696593
2 Ar 0.159542 0.0768644 4.38712
3 Ar -0.0178544 -0.0429977 8.89312
4 Ar 0.459964 4.35741 -0.13876
5 Ar -0.13508 4.54099 4.48779
6 Ar 0.0498325 4.4149 9.0582
7 Ar 0.0908969 8.86993 -0.0832961
8 Ar -0.0329537 8.76273 4.41797
9 Ar -0.257095 9.04426 8.98932
10 Ar 4.44538 -0.0831932 -0.112782
11 Ar 4.44936 0.105492 4.66687
12 Ar 4.61711 -0.0782072 8.85071
13 Ar 4.47655 4.51137 -0.0194132
14 Ar 4.38841 4.56782 4.36694
15 Ar 4.42704 4.51236 8.84588
16 Ar 4.38634 8.88133 0.0331998
17 Ar 4.53491 8.92028 4.50367
18 Ar 4.53244 8.80869 8.90297
19 Ar 8.87943 -0.0483384 -0.0948563
20 Ar 9.19796 -0.00433576 4.43208
21 Ar 8.73713 0.0836421 8.88508
22 Ar 8.74869 4.53355 -0.15769
23 Ar 8.93589 4.43089 4.64372
24 Ar 9.1141 4.23599 8.90528
25 Ar 8.93678 8.80639 -0.107829
26 Ar 8.86004 8.88791 4.49962
27 Ar 8.76362 8.89278 9.00435
28 Ar 0.0482389 2.46168 2.12361
29 Ar -0.107697 2.30053 6.72562
30 Ar 0.0873771 2.12766 11.1833
31 Ar 0.0471389 6.616 2.32387
32 Ar 0.0887033 6.78544 6.78307
33 Ar -0.077792 6.69653 11.1153
34 Ar -0.11818 11.0608 2.30038
35 Ar 0.0344788 11.0759 6.52745
36 Ar -0.0769709 11.0655 11.1433
37 Ar 4.44912 2.2552 2.45549
38 Ar 4.45848 2.09368 6.82619
39 Ar 4.40309 2.2545 11.0129
40 Ar 4.54656 6.69156 2.20935
41 Ar 4.30635 6.77434 6.67824
42 Ar 4.46366 6.88602 11.0901
43 Ar 4.50488 11.2247 2.2366
44 Ar 4.345 11.1298 6.58944
45 Ar 4.3275 10.8889 11.1218
46 Ar 8.84783 2.38402 2.35692
47 Ar 8.95159 2.16827 6.62176
48 Ar 8.68487 2.1992 11.2618
49 Ar 8.93858 6.58771 2.29874
50 Ar 8.98954 6.71616 6.72231
51 Ar 8.94175 6.49564 11.0066
52 Ar 8.88794 11.0568 2.1677
53 Ar 8.96039 11.0173 6.72919
54 Ar 8.75176 11.2376 11.0292
55 Ar 2.16439 0.12395 2.00746
56 Ar 2.30865 0.0317673 6.89585
57 Ar 2.04177 -0.204209 11.0629
58 Ar 2.41772 4.46101 2.22378
59 Ar 2.04748 4.45756 6.7852
60 Ar 2.37641 4.6471 11.0758
61 Ar 2.21546 8.99054 2.20348
62 Ar 2.01459 8.99969 6.62392
63 Ar 2.14431 8.94161 11.1682
64 Ar 6.76946 -0.0520374 2.25095
65 Ar 6.8672 -0.277315 6.52262
66 Ar 6.60454 -0.0291771 11.2495
67 Ar 6.75621 4.55666 2.17367
68 Ar 6.68865 4.48213 6.72687
69 Ar 6.55924 4.40535 11.1018
70 Ar 6.50132 8.93905 2.29488
71 Ar 6.65224 8.97616 6.65722
72 Ar 6.62123 8.76869 11.3521
73 Ar 11.1718 0.11965 2.16748
74 Ar 11.2362 -0.0010605 6.51615
75 Ar 11.097 -0.0346995 11.216
76 Ar 11.0597 4.36955 2.03637
77 Ar 11.1904 4.31326 6.89092
78 Ar 11.2273 4.67657 11.0367
79 Ar 11.1305 9.00106 2.09855
80 Ar 11.2091 8.80364 6.79889
81 Ar 10.9585 9.00465 11.0244
82 Ar 2.4013 2.18343 -0.00104682
83 Ar 2.25492 2.26376 4.58285
84 Ar 2.23729 2.10355 8.88776
85 Ar 2.32317 6.55754 -0.104244
86 Ar 2.20905 6.63191 4.53435
87 Ar 2.2624 6.94717 8.92473
88 Ar 2.24638 11.0631 0.060683
89 Ar 2.1538 11.1758 4.3557
90 Ar 2.20659 11.0579 8.97804
91 Ar 6.4669 2.21573 0.101157
92 Ar 6.59633 2.36936 4.51207
93 Ar 6.73298 2.30603 8.91001
94 Ar 6.68926 6.71363 0.00405131
95 Ar 6.89194 6.72499 4.43544
96 Ar 6.60855 6.61968 8.73637
97 Ar 6.66143 11.1191 -0.0738478
98 Ar 6.7051 11.1473 4.40225
99 Ar 6.53019 11.0332 8.80699
100 Ar 11.0498 2.3477 -0.13506
101 Ar 11.2204 2.25051 4.28804
102 Ar 11.0119 2.00322 9.06495
103 Ar 11.2547 6.57569 0.0937792
104 Ar 10.9656 6.70668 4.3024
105 Ar 11.1718 6.63648 8.92046
106 Ar 11.2007 11.1229 -0.153175
107 Ar 11.1179 11.0569 4.50946
108 Ar 11.0805 11.1353 8.87499
ITEM: TIMESTEP
74040
ITEM: NUMBER OF ATOMS
108
ITEM: BOX BOUNDS pp pp pp
0.0000000000000000e+00 1.3349999400000000e+01
0.0000000000000000e+00 1.3349999400000000e+01
0.0000000000000000e+00 1.3349999400000000e+01
ITEM: ATOMS id element xu yu zu
1 Ar 0.02324 -0.0328592 0.0772333
2 Ar 0.166813 0.0707749 4.37768
3 Ar -0.0512608 -0.0405214 8.88629
4 Ar 0.461178 4.35277 -0.142163
5 Ar -0.1478 4.53141 4.4915
6 Ar 0.0545357 4.41892 9.05275
7 Ar 0.102323 8.86645 -0.0906327
8 Ar -0.0275342 8.74155 4.41725
9 Ar -0.274932 9.04663 8.98077
10 Ar 4.45526 -0.103967 -0.116754
11 Ar 4.44179 0.131079 4.65665
12 Ar 4.62655 -0.0501772 8.83682
13 Ar 4.48263 4.52137 -0.00458829
14 Ar 4.38891 4.55441 4.34831
15 Ar 4.42097 4.52232 8.85419
16 Ar 4.37664 8.86639 0.0410367
17 Ar 4.54081 8.92242 4.50308
18 Ar 4.5326 8.82642 8.90572
19 Ar 8.87623 -0.0581001 -0.101973
20 Ar 9.19178 -0.0297314 4.42546
21 Ar 8.74923 0.0781575 8.89071
22 Ar 8.73341 4.54067 -0.159747
23 Ar 8.9519 4.42391 4.63288
24 Ar 9.11796 4.24679 8.8945
25 Ar 8.92586 8.82126 -0.0997577
26 Ar 8.85446 8.89082 4.50247
27 Ar 8.75904 8.89001 9.02517
28 Ar 0.0743107 2.45935 2.14586
29 Ar -0.111132 2.28413 6.7409
30 Ar 0.0826115 2.11593 11.1799
31 Ar 0.0446743 6.5952 2.30796
32 Ar 0.0690161 6.78907 6.78668
33 Ar -0.0593176 6.72052 11.1186
34 Ar -0.105185 11.0477 2.321
35 Ar 0.0301875 11.0815 6.53119
36 Ar -0.0662636 11.083 11.1292
37 Ar 4.45606 2.23997 2.46784
38 Ar 4.47669 2.10422 6.83385
39 Ar 4.40158 2.26712 11.0169
40 Ar 4.5146 6.68961 2.1881
41 Ar 4.29524 6.77049 6.6825
42 Ar 4.46758 6.87412 11.0927
43 Ar 4.51003 11.2242 2.23831
44 Ar 4.35694 11.1401 6.58421
45 Ar 4.33287 10.906 11.1265
46 Ar 8.85807 2.37584 2.34959
47 Ar 8.95166 2.17099 6.61367
48 Ar 8.68342 2.18201 11.2728
49 Ar 8.93967 6.59632 2.28895
50 Ar 8.97487 6.71605 6.72618
51 Ar 8.96236 6.49924 10.9946
52 Ar 8.87997 11.0498 2.14831
53 Ar 8.95907 11.0211 6.73107
54 Ar 8.7556 11.2244 11.0395
55 Ar 2.18282 0.102789 2.00093
56 Ar 2.32019 0.0156345 6.90156
57 Ar 2.03891 -0.195554 11.0669
58 Ar 2.41055 4.4573 2.21482
59 Ar 2.04315 4.45491 6.77746
60 Ar 2.38556 4.66851 11.1035
61 Ar 2.22466 9.01342 2.21004
62 Ar 2.00241 8.99751 6.63792
63 Ar 2.13894 8.9384 11.1562
64 Ar 6.78482 -0.0571285 2.23919
65 Ar 6.84752 -0.263764 6.53852
66 Ar 6.58373 -0.0460729 11.2872
67 Ar 6.76915 4.55205 2.16926
68 Ar 6.69128 4.48471 6.72856
69 Ar 6.56504 4.40544 11.1093
70 Ar 6.49974 8.94047 2.27307
71 Ar 6.65291 8.99146 6.65947
72 Ar 6.63095 8.77176 11.3339
73 Ar 11.1706 0.128051 2.17696
74 Ar 11.2186 0.00515536 6.5154
75 Ar 11.0888 -0.0414266 11.2207
76 Ar 11.0632 4.36829 2.04616
77 Ar 11.1909 4.32841 6.90326
78 Ar 11.1999 4.66465 11.0226
79 Ar 11.1441 9.02156 2.10331
80 Ar 11.2082 8.81261 6.79689
81 Ar 10.9602 9.01506 11.0185
82 Ar 2.39491 2.19231 0.0302005
83 Ar 2.24799 2.2835 4.56418
84 Ar 2.23381 2.12219 8.88234
85 Ar 2.32154 6.57982 -0.0928495
86 Ar 2.19814 6.63527 4.51132
87 Ar 2.27906 6.91077 8.93533
88 Ar 2.25998 11.0844 0.0592604
89 Ar 2.14782 11.17 4.36593
90 Ar 2.19641 11.0246 8.96085
91 Ar 6.45751 2.19938 0.111315
92 Ar 6.59772 2.3452 4.52008
93 Ar 6.74626 2.31953 8.90586
94 Ar 6.6948 6.7006 -0.00482336
95 Ar 6.88879 6.74825 4.41864
96 Ar 6.61215 6.61998 8.7464
97 Ar 6.68356 11.1186 -0.0728376
98 Ar 6.68433 11.144 4.38419
99 Ar 6.52104 11.0441 8.82713
100 Ar 11.0492 2.35162 -0.128657
101 Ar 11.2244 2.26642 4.29423
102 Ar 11.0114 1.99812 9.04733
103 Ar 11.2318 6.56268 0.0945848
104 Ar 10.9882 6.69721 4.29952
105 Ar 11.1674 6.62634 8.9098
106 Ar 11.2182 11.109 -0.152751
107 Ar 11.127 11.0519 4.50475
108 Ar 11.0816 11.1324 8.8754
ITEM: TIMESTEP
74050
ITEM: NUMBER OF ATOMS
108
ITEM: BOX BOUNDS pp pp pp
0.0000000000000000e+00 1.3349999400000000e+01
0.0000000000000000e+00 1.3349999400000000e+01
0.0000000000000000e+00 1.3349999400000000e+01
ITEM: ATOMS id element xu yu zu
1 Ar 0.0100461 -0.0349414 0.0835897
2 Ar 0.17275 0.0652323 4.36858
3 Ar -0.085168 -0.0386389 8.87872
4 Ar 0.455449 4.34953 -0.144444
5 Ar -0.159321 4.52165 4.49568
6 Ar 0.0600545 4.42261 9.04683
7 Ar 0.111578 8.86242 -0.0954906
8 Ar -0.0230295 8.72174 4.4161
9 Ar -0.28726 9.04673 8.97193
10 Ar 4.46348 -0.12401 -0.119277
11 Ar 4.4339 0.154157 4.64311
12 Ar 4.63513 -0.0224318 8.82575
13 Ar 4.48955 4.53023 0.0101468
14 Ar 4.39205 4.54134 4.33412
15 Ar 4.41408 4.53179 8.86196
16 Ar 4.36734 8.85217 0.0495765
17 Ar 4.54365 8.92382 4.50186
18 Ar 4.53184 8.8465 8.90703
19 Ar 8.87382 -0.0668657 -0.105355
20 Ar 9.181 -0.0550634 4.41762
21 Ar 8.7619 0.0704673 8.89659
22 Ar 8.72052 4.54595 -0.159839
23 Ar 8.96846 4.4174 4.62085
24 Ar 9.11736 4.25966 8.88457
25 Ar 8.91542 8.83621 -0.0900266
26 Ar 8.85075 8.89555 4.50407
27 Ar 8.75438 8.88669 9.04441
28 Ar 0.100509 2.45498 2.16864
29 Ar -0.11269 2.26549 6.75586
30 Ar 0.0771698 2.10538 11.1759
31 Ar 0.0426794 6.57449 2.28907
32 Ar 0.0475221 6.78982 6.7901
33 Ar -0.039309 6.7456 11.122
34 Ar -0.0908936 11.0366 2.33993
35 Ar 0.0244789 11.0896 6.53673
36 Ar -0.0550711 11.1014 11.115
37 Ar 4.46351 2.22316 2.47676
38 Ar 4.49609 2.11882 6.84027
39 Ar 4.39977 2.27816 11.0216
40 Ar 4.48139 6.68836 2.16817
41 Ar 4.28574 6.7654 6.68534
42 Ar 4.47172 6.85886 11.0958
43 Ar 4.51358 11.2242 2.2405
44 Ar 4.36883 11.1492 6.57992
45 Ar 4.34052 10.926 11.1308
46 Ar 8.86753 2.36516 2.34004
47 Ar 8.95128 2.17285 6.60559
48 Ar 8.68367 2.16541 11.2824
49 Ar 8.9403 6.60697 2.2758
50 Ar 8.95996 6.71526 6.7308
51 Ar 8.98032 6.50591 10.9829
52 Ar 8.87302 11.0432 2.12905
53 Ar 8.95836 11.0253 6.7328
54 Ar 8.7603 11.2095 11.0495
55 Ar 2.20308 0.0799002 1.99934
56 Ar 2.3285 -0.00224473 6.90409
57 Ar 2.04001 -0.184717 11.072
58 Ar 2.40062 4.45409 2.20625
59 Ar 2.04135 4.45238 6.76909
60 Ar 2.39477 4.68674 11.1276
61 Ar 2.23418 9.03341 2.21791
62 Ar 1.9945 8.99469 6.65242
63 Ar 2.13375 8.93403 11.1435
64 Ar 6.79959 -0.0601942 2.22796
65 Ar 6.82671 -0.246093 6.55539
66 Ar 6.56253 -0.061899 11.3207
67 Ar 6.78026 4.54607 2.16655
68 Ar 6.69327 4.48704 6.72872
69 Ar 6.57102 4.40744 11.1159
70 Ar 6.50183 8.94152 2.24921
71 Ar 6.65396 9.00504 6.66158
72 Ar 6.64257 8.77743 11.3116
73 Ar 11.1693 0.13505 2.18504
74 Ar 11.2012 0.0111551 6.51743
75 Ar 11.081 -0.0475856 11.224
76 Ar 11.0677 4.36837 2.05755
77 Ar 11.1917 4.34575 6.91227
78 Ar 11.1728 4.64661 11.0123
79 Ar 11.1568 9.03913 2.10863
80 Ar 11.2047 8.82258 6.79184
81 Ar 10.9625 9.02287 11.0152
82 Ar 2.38966 2.20109 0.0591183
83 Ar 2.23979 2.30364 4.5456
84 Ar 2.22962 2.14297 8.87907
85 Ar 2.31889 6.60653 -0.0784618
86 Ar 2.18762 6.63952 4.48706
87 Ar 2.29308 6.87243 8.94569
88 Ar 2.27226 11.1065 0.0574008
89 Ar 2.14414 11.1644 4.37626
90 Ar 2.18639 10.9914 8.94155
91 Ar 6.44963 2.18321 0.121588
92 Ar 6.60091 2.3197 4.52854
93 Ar 6.75832 2.33177 8.901
94 Ar 6.7001 6.68728 -0.0128317
95 Ar 6.88152 6.76941 4.40358
96 Ar 6.61764 6.6209 8.75888
97 Ar 6.7051 11.1165 -0.0698835
98 Ar 6.66435 11.1404 4.3662
99 Ar 6.51392 11.0556 8.8495
100 Ar 11.0495 2.35488 -0.12229
101 Ar 11.2284 2.28269 4.30262
102 Ar 11.0133 1.99435 9.02954
103 Ar 11.2086 6.55138 0.0938678
104 Ar 11.0135 6.68753 4.29945
105 Ar 11.1625 6.61803 8.89778
106 Ar 11.2335 11.0949 -0.14919
107 Ar 11.1362 11.0462 4.49898
108 Ar 11.0813 11.1327 8.87528
ITEM: TIMESTEP
74060
ITEM: NUMBER OF ATOMS
108
ITEM: BOX BOUNDS pp pp pp
0.0000000000000000e+00 1.3349999400000000e+01
0.0000000000000000e+00 1.3349999400000000e+01
0.0000000000000000e+00 1.3349999400000000e+01
ITEM: ATOMS id element xu yu zu
1 Ar -0.00422599 -0.0362979 0.0889121
2 Ar 0.177276 0.060415 4.36003
3 Ar -0.118674 -0.0374574 8.8706
4 Ar 0.442708 4.34782 -0.145691
5 Ar -0.169283 4.51197 4.50043
6 Ar 0.0662758 4.42608 9.0409
7 Ar 0.118593 8.85821 -0.0976517
8 Ar -0.0194337 8.70356 4.41455
9 Ar -0.293936 9.04444 8.96298
10 Ar 4.46952 -0.142838 -0.119891
11 Ar 4.42556 0.174244 4.62672
12 Ar 4.64274 0.00471007 8.81793
13 Ar 4.49722 4.53768 0.0246293
14 Ar 4.39783 4.52897 4.3244
15 Ar 4.40663 4.54056 8.86913
16 Ar 4.35879 8.83921 0.0581349
17 Ar 4.54338 8.92432 4.5
18 Ar 4.53002 8.86824 8.90698
19 Ar 8.87251 -0.0745763 -0.104898
20 Ar 9.16574 -0.0800495 4.40875
21 Ar 8.77478 0.060668 8.90276
22 Ar 8.71041 4.54911 -0.158074
23 Ar 8.9851 4.41168 4.60775
24 Ar 9.11211 4.27421 8.87558
25 Ar 8.90572 8.85087 -0.0789034
26 Ar 8.84914 8.90205 4.50434
27 Ar 8.74975 8.88303 9.06149
28 Ar 0.126287 2.44852 2.19165
29 Ar -0.112397 2.24503 6.77018
30 Ar 0.0710664 2.09622 11.1714
31 Ar 0.0411137 6.55413 2.26731
32 Ar 0.0248108 6.78759 6.79326
33 Ar -0.0187546 6.77079 11.1252
34 Ar -0.0753519 11.0277 2.35681
35 Ar 0.0173601 11.1001 6.54389
36 Ar -0.0435655 11.1201 11.101
37 Ar 4.47138 2.20514 2.48189
38 Ar 4.51608 2.13742 6.84513
39 Ar 4.39762 2.28755 11.0269
40 Ar 4.44766 6.68789 2.1501
41 Ar 4.27796 6.75923 6.6866
42 Ar 4.47633 6.84092 11.0994
43 Ar 4.51555 11.2249 2.24304
44 Ar 4.38058 11.1569 6.57654
45 Ar 4.35003 10.9484 11.1348
46 Ar 8.87613 2.35207 2.32841
47 Ar 8.95048 2.17382 6.5976
48 Ar 8.68547 2.14963 11.2906
49 Ar 8.94071 6.61962 2.25979
50 Ar 8.94496 6.71397 6.73583
51 Ar 8.99533 6.51565 10.9718
52 Ar 8.86737 11.0371 2.11039
53 Ar 8.95801 11.0299 6.73437
54 Ar 8.76583 11.1934 11.0592
55 Ar 2.22481 0.05555 2.00268
56 Ar 2.3335 -0.0212513 6.90368
57 Ar 2.04507 -0.171813 11.0776
58 Ar 2.38823 4.45144 2.19822
59 Ar 2.04202 4.4501 6.75994
60 Ar 2.40382 4.70141 11.1482
61 Ar 2.24384 9.05037 2.22694
62 Ar 1.99085 8.9909 6.66714
63 Ar 2.12921 8.92883 11.1301
64 Ar 6.81357 -0.0612717 2.21743
65 Ar 6.80524 -0.224894 6.5728
66 Ar 6.54165 -0.0762877 11.3488
67 Ar 6.78938 4.53882 2.16581
68 Ar 6.69459 4.48929 6.72712
69 Ar 6.57715 4.41115 11.1215
70 Ar 6.50733 8.94195 2.22356
71 Ar 6.65534 9.0168 6.6637
72 Ar 6.65553 8.78534 11.286
73 Ar 11.1677 0.14055 2.1917
74 Ar 11.1841 0.0167469 6.52186
75 Ar 11.0738 -0.0530613 11.2259
76 Ar 11.0731 4.36966 2.07033
77 Ar 11.1928 4.36479 6.91762
78 Ar 11.1471 4.62285 11.0058
79 Ar 11.1684 9.05325 2.11442
80 Ar 11.1984 8.83341 6.78368
81 Ar 10.9655 9.0279 11.0147
82 Ar 2.38585 2.20946 0.0853046
83 Ar 2.23035 2.32384 4.52758
84 Ar 2.22481 2.16535 8.87786
85 Ar 2.31497 6.63701 -0.0612897
86 Ar 2.17778 6.64442 4.46204
87 Ar 2.3043 6.83281 8.95548
88 Ar 2.28291 11.1289 0.0549222
89 Ar 2.14298 11.1592 4.38688
90 Ar 2.17672 10.9592 8.92072
91 Ar 6.44329 2.16757 0.131814
92 Ar 6.6062 2.29331 4.53727
93 Ar 6.76924 2.34261 8.89576
94 Ar 6.70497 6.67429 -0.0200758
95 Ar 6.8702 6.78804 4.39031
96 Ar 6.62474 6.62246 8.77357
97 Ar 6.72553 11.1122 -0.064956
98 Ar 6.64553 11.137 4.34882
99 Ar 6.50904 11.0679 8.87381
100 Ar 11.0508 2.35748 -0.115953
101 Ar 11.2321 2.29865 4.3132
102 Ar 11.0171 1.99216 9.0119
103 Ar 11.1852 6.54202 0.0914154
104 Ar 11.0405 6.67793 4.30205
105 Ar 11.1574 6.6119 8.88483
106 Ar 11.2465 11.0808 -0.14261
107 Ar 11.1454 11.0398 4.49233
108 Ar 11.0792 11.1362 8.87463
ITEM: TIMESTEP
74070
ITEM: NUMBER OF ATOMS
108
ITEM: BOX BOUNDS pp pp pp
0.0000000000000000e+00 1.3349999400000000e+01
0.0000000000000000e+00 1.3349999400000000e+01
0.0000000000000000e+00 1.3349999400000000e+01
ITEM: ATOMS id element xu yu zu
1 Ar -0.0191929 -0.0368488 0.0933922
2 Ar 0.180329 0.0564572 4.35223
3 Ar -0.150888 -0.0370793 8.86217
4 Ar 0.423085 4.34772 -0.146051
5 Ar -0.1773 4.50264 4.50585
6 Ar 0.0730119 4.42942 9.03539
7 Ar 0.123332 8.85423 -0.0969534
8 Ar -0.016698 8.68727 4.41263
9 Ar -0.295067 9.03974 8.95406
10 Ar 4.47298 -0.159989 -0.118115
11 Ar 4.41665 0.190913 4.6081
12 Ar 4.64919 0.0309761 8.81365
13 Ar 4.50547 4.54349 0.0387045
14 Ar 4.4062 4.51763 4.31905
15 Ar 4.39894 4.54839 8.87564
16 Ar 4.35132 8.82809 0.0660286
17 Ar 4.54003 8.92381 4.4975
18 Ar 4.52701 8.89089 8.90569
19 Ar 8.87256 -0.0811868 -0.100641
20 Ar 9.14625 -0.104451 4.39905
21 Ar 8.78752 0.0489244 8.90922
22 Ar 8.7034 4.54987 -0.154593
23 Ar 9.00139 4.40706 4.59369
24 Ar 9.10217 4.29005 8.86754
25 Ar 8.89697 8.86485 -0.0667099
26 Ar 8.84974 8.91016 4.50324
27 Ar 8.74533 8.87925 9.07581
28 Ar 0.151057 2.43995 2.21453
29 Ar -0.110285 2.2232 6.78355
30 Ar 0.0643287 2.08862 11.1665
31 Ar 0.0398905 6.53439 2.24286
32 Ar 0.00149296 6.78242 6.79608
33 Ar 0.00143506 6.79515 11.1279
34 Ar -0.0586377 11.0214 2.37132
35 Ar 0.00890382 11.1128 6.55246
36 Ar -0.0319275 11.1389 11.0874
37 Ar 4.47959 2.18635 2.48296
38 Ar 4.53602 2.15981 6.84817
39 Ar 4.39514 2.29525 11.033
40 Ar 4.41414 6.6882 2.13445
41 Ar 4.27201 6.75215 6.68615
42 Ar 4.48166 6.82108 11.1034
43 Ar 4.516 11.2262 2.24582
44 Ar 4.39216 11.1633 6.57404
45 Ar 4.36088 10.9725 11.1383
46 Ar 8.88383 2.33672 2.3149
47 Ar 8.94931 2.17391 6.58979
48 Ar 8.68863 2.13488 11.2972
49 Ar 8.94104 6.6342 2.24157
50 Ar 8.93 6.71232 6.74093
51 Ar 9.00719 6.52833 10.9619
52 Ar 8.8633 11.0316 2.09279
53 Ar 8.95774 11.0351 6.73578
54 Ar 8.77217 11.1765 11.0684
55 Ar 2.2476 0.0301153 2.01084
56 Ar 2.33522 -0.0407277 6.90062
57 Ar 2.05404 -0.156954 11.0831
58 Ar 2.37379 4.44944 2.19087
59 Ar 2.04501 4.44818 6.7499
60 Ar 2.4124 4.71222 11.1654
61 Ar 2.25347 9.06423 2.23694
62 Ar 1.9913 8.98582 6.68172
63 Ar 2.12583 8.92316 11.1164
64 Ar 6.82655 -0.0604684 2.20777
65 Ar 6.78355 -0.200789 6.59038
66 Ar 6.52185 -0.0889003 11.3709
67 Ar 6.79641 4.53042 2.1673
68 Ar 6.69525 4.49161 6.72357
69 Ar 6.58339 4.41631 11.1258
70 Ar 6.51595 8.94154 2.19647
71 Ar 6.65703 9.02671 6.66598
72 Ar 6.66918 8.79511 11.2578
73 Ar 11.1662 0.144494 2.19703
74 Ar 11.1673 0.0217452 6.5282
75 Ar 11.0671 -0.0577834 11.2265
76 Ar 11.0794 4.37199 2.08423
77 Ar 11.1946 4.38495 6.9191
78 Ar 11.1234 4.59386 11.0031
79 Ar 11.1788 9.06348 2.1206
80 Ar 11.1891 8.84494 6.77249
81 Ar 10.9693 9.03009 11.0171
82 Ar 2.38364 2.21708 0.108437
83 Ar 2.21982 2.34376 4.51057
84 Ar 2.21951 2.1888 8.87852
85 Ar 2.30957 6.67039 -0.0417154
86 Ar 2.16888 6.64971 4.43672
87 Ar 2.31262 6.79263 8.96438
88 Ar 2.29163 11.1508 0.0516515
89 Ar 2.14446 11.1543 4.39801
90 Ar 2.1676 10.9287 8.899
91 Ar 6.43853 2.1528 0.141781
92 Ar 6.61379 2.26642 4.54604
93 Ar 6.77911 2.3519 8.89046
94 Ar 6.70928 6.66227 -0.0266722
95 Ar 6.85505 6.80382 4.37881
96 Ar 6.6331 6.62466 8.7902
97 Ar 6.74428 11.1056 -0.05812
98 Ar 6.62823 11.1339 4.33254
99 Ar 6.50656 11.0808 8.89966
100 Ar 11.0531 2.35939 -0.109608
101 Ar 11.2352 2.31361 4.32587
102 Ar 11.0224 1.99187 8.9947
103 Ar 11.1621 6.53474 0.0870314
104 Ar 11.0684 6.66864 4.30712
105 Ar 11.1522 6.60816 8.8715
106 Ar 11.2573 11.0669 -0.133229
107 Ar 11.1544 11.0329 4.48498
108 Ar 11.0754 11.1427 8.87349
ITEM: TIMESTEP
74080
ITEM: NUMBER OF ATOMS
108
ITEM: BOX BOUNDS pp pp pp
0.0000000000000000e+00 1.3349999400000000e+01
0.0000000000000000e+00 1.3349999400000000e+01
0.0000000000000000e+00 1.3349999400000000e+01
ITEM: ATOMS id element xu yu zu
1 Ar -0.0344233 -0.0365227 0.0972089
2 Ar 0.181864 0.0534431 4.34537
3 Ar -0.180966 -0.0375962 8.85371
4 Ar 0.396901 4.34925 -0.145717
5 Ar -0.182979 4.49388 4.51196
6 Ar 0.0800119 4.43272 9.03063
7 Ar 0.125796 8.8509 -0.0933044
8 Ar -0.0147358 8.67313 4.41044
9 Ar -0.290993 9.03273 8.94525
10 Ar 4.47359 -0.175018 -0.11351
11 Ar 4.40707 0.203808 4.58793
12 Ar 4.65424 0.056149 8.8131
13 Ar 4.51411 4.54748 0.0522338
14 Ar 4.41702 4.5075 4.31784
15 Ar 4.39143 4.55505 8.88142
16 Ar 4.34528 8.81936 0.0726119
17 Ar 4.5337 8.92223 4.49435
18 Ar 4.52273 8.91371 8.90326
19 Ar 8.87414 -0.0866701 -0.0927565
20 Ar 9.1229 -0.128073 4.38877
21 Ar 8.79982 0.03547 8.91594
22 Ar 8.69973 4.54804 -0.149559
23 Ar 9.01692 4.4038 4.57878
24 Ar 9.08768 4.30683 8.86043
25 Ar 8.88936 8.87773 -0.0538237
26 Ar 8.85254 8.91964 4.50072
27 Ar 8.74138 8.8756 9.08675
28 Ar 0.174212 2.42921 2.2369
29 Ar -0.106381 2.20051 6.79564
30 Ar 0.0570009 2.08268 11.1612
31 Ar 0.0388777 6.51555 2.21602
32 Ar -0.0218146 6.77445 6.79842
33 Ar 0.0204519 6.81784 11.1301
34 Ar -0.0408702 11.0177 2.38319
35 Ar -0.000763138 11.1274 6.56222
36 Ar -0.0203318 11.1574 11.0744
37 Ar 4.48802 2.16733 2.4798
38 Ar 4.55527 2.18569 6.84916