ITEM: TIMESTEP
12000
ITEM: NUMBER OF ATOMS
108
ITEM: BOX BOUNDS pp pp pp
0.0000000000000000e+00 1.3349999400000000e+01
0.0000000000000000e+00 1.3349999400000000e+01
0.0000000000000000e+00 1.3349999400000000e+01
ITEM: ATOMS id element xu yu zu
1 Ar -0.0708601 0.0222559 -0.0745829
2 Ar -0.00543194 0.116503 4.51534
3 Ar -0.0469662 -0.00906815 8.92323
4 Ar -0.0767895 4.2135 -0.265293
5 Ar -0.169226 4.26709 4.46106
6 Ar -0.197546 4.56656 8.76776
7 Ar -0.0644645 8.9281 0.0682935
8 Ar 0.0826743 9.0158 4.59489
9 Ar 0.202153 8.78691 8.89616
10 Ar 4.57895 0.0457525 0.0742751
11 Ar 4.5144 0.0120542 4.45689
12 Ar 4.46073 0.106632 8.87857
13 Ar 4.4703 4.4807 0.233321
14 Ar 4.32524 4.44215 4.32631
15 Ar 4.24041 4.38 8.81746
16 Ar 4.46071 8.83553 0.0177596
17 Ar 4.55756 8.81173 4.43681
18 Ar 4.55891 9.0904 9.00354
19 Ar 8.87095 -0.12951 0.144391
20 Ar 8.73029 -0.03353 4.3859
21 Ar 8.92144 0.0033502 9.00688
22 Ar 8.9355 4.32741 0.0543051
23 Ar 8.99332 4.43193 4.29951
24 Ar 8.87716 4.42308 8.95501
25 Ar 9.14076 8.8925 -0.0518891
26 Ar 9.08558 8.8604 4.46732
27 Ar 9.01293 8.78208 8.80065
28 Ar 0.0929345 2.01031 2.12287
29 Ar 0.0439834 2.30702 6.64503
30 Ar -0.0660597 2.18907 10.9584
31 Ar 0.0445632 6.74761 2.22917
32 Ar -0.0743058 6.65906 6.58654
33 Ar -0.149226 6.78936 11.2214
34 Ar -0.0458283 11.3053 2.39282
35 Ar 0.0595191 11.2851 6.81963
36 Ar -0.0209646 11.0497 10.943
37 Ar 4.43905 2.18605 2.10994
38 Ar 4.37689 2.40406 6.5051
39 Ar 4.51871 2.30461 11.0365
40 Ar 4.28759 6.65966 2.05785
41 Ar 4.50628 6.64146 6.70123
42 Ar 4.29227 6.56529 11.1122
43 Ar 4.42688 11.0795 2.30277
44 Ar 4.58742 11.0063 6.70879
45 Ar 4.39399 11.0805 11.2473
46 Ar 8.9186 2.15143 2.28754
47 Ar 8.78278 2.23618 6.75217
48 Ar 8.99507 2.24645 11.1054
49 Ar 9.03265 6.75061 2.26182
50 Ar 9.02465 6.68872 6.5678
51 Ar 8.81948 6.60749 11.2741
52 Ar 8.85831 11.2028 2.05127
53 Ar 8.92812 11.2228 6.92776
54 Ar 8.86404 10.9972 11.1141
55 Ar 2.30013 -0.0100415 2.09091
56 Ar 2.48097 -0.0647991 6.52662
57 Ar 2.25562 -0.151198 11.0375
58 Ar 2.05262 4.40284 2.19246
59 Ar 2.1776 4.41667 6.72482
60 Ar 2.11834 4.34528 10.9179
61 Ar 2.12521 8.88955 2.23807
62 Ar 2.32007 8.87001 6.76152
63 Ar 2.24825 8.87468 11.2336
64 Ar 6.6424 0.0321151 2.38129
65 Ar 6.75815 -0.0206464 6.73915
66 Ar 6.86097 0.15597 11.2202
67 Ar 6.85422 4.54313 2.33473
68 Ar 6.54226 4.5817 6.63582
69 Ar 6.59501 4.54495 11.2336
70 Ar 6.67609 8.9835 2.13956
71 Ar 6.82774 8.85671 6.63965
72 Ar 6.75601 8.96731 11.2424
73 Ar 11.0622 0.0182342 2.20323
74 Ar 11.0154 0.0743693 6.57357
75 Ar 11.2317 -0.0585374 11.1126
76 Ar 11.2447 4.43049 2.06048
77 Ar 11.0215 4.4269 6.75966
78 Ar 11.0271 4.40441 11.1469
79 Ar 11.1369 8.95143 2.12271
80 Ar 11.1024 9.04378 6.71051
81 Ar 11.1881 8.80297 11.1056
82 Ar 2.2814 2.14362 -0.122925
83 Ar 2.04584 2.21968 4.43983
84 Ar 2.0277 2.14681 8.8024
85 Ar 2.09465 6.52586 -0.0526612
86 Ar 2.07353 6.73259 4.62041
87 Ar 2.16026 6.70396 8.95366
88 Ar 2.20409 11.1747 0.0386843
89 Ar 2.32723 11.1295 4.48752
90 Ar 2.48001 11.2786 8.91215
91 Ar 6.68409 2.18614 -0.0574146
92 Ar 6.70122 2.15995 4.4323
93 Ar 6.8379 2.34148 8.8944
94 Ar 6.65837 6.64871 0.0453797
95 Ar 6.61374 6.77063 4.35537
96 Ar 6.62738 6.69035 8.95663
97 Ar 6.61801 11.0787 0.130026
98 Ar 6.80107 11.0928 4.41861
99 Ar 6.66274 11.1479 9.08853
100 Ar 11.0193 2.17032 0.00207954
101 Ar 10.986 2.16092 4.45234
102 Ar 11.1555 2.2374 8.73664
103 Ar 11.1692 6.70093 0.0970129
104 Ar 11.2635 6.75018 4.31371
105 Ar 11.1864 6.72365 8.92872
106 Ar 11.1333 11.1456 -0.0973136
107 Ar 10.9028 11.2441 4.67717
108 Ar 11.087 11.0892 8.97539
ITEM: TIMESTEP
12010
ITEM: NUMBER OF ATOMS
108
ITEM: BOX BOUNDS pp pp pp
0.0000000000000000e+00 1.3349999400000000e+01
0.0000000000000000e+00 1.3349999400000000e+01
0.0000000000000000e+00 1.3349999400000000e+01
ITEM: ATOMS id element xu yu zu
1 Ar -0.0766956 0.0168137 -0.0758313
2 Ar -0.01833 0.108514 4.51569
3 Ar -0.0401725 -0.0118367 8.91861
4 Ar -0.0760182 4.21943 -0.250955
5 Ar -0.180383 4.26467 4.46388
6 Ar -0.197047 4.56484 8.7418
7 Ar -0.0458812 8.91932 0.0626131
8 Ar 0.0634611 9.01849 4.58479
9 Ar 0.201311 8.7985 8.88412
10 Ar 4.57819 0.0468007 0.0796871
11 Ar 4.53134 0.018303 4.43958
12 Ar 4.47565 0.100045 8.89079
13 Ar 4.47581 4.47723 0.228309
14 Ar 4.32908 4.43569 4.31298
15 Ar 4.23542 4.36679 8.80701
16 Ar 4.47591 8.84911 0.0373296
17 Ar 4.56059 8.81057 4.44711
18 Ar 4.53588 9.07816 9.02081
19 Ar 8.85769 -0.127479 0.154858
20 Ar 8.72126 -0.0305224 4.39603
21 Ar 8.93513 0.00139941 9.00402
22 Ar 8.93607 4.2994 0.0340429
23 Ar 8.98153 4.46626 4.29211
24 Ar 8.87766 4.40777 8.95778
25 Ar 9.14631 8.91612 -0.0521808
26 Ar 9.09063 8.84245 4.44341
27 Ar 9.009 8.78027 8.80511
28 Ar 0.0683274 1.99468 2.10704
29 Ar 0.044422 2.31035 6.65547
30 Ar -0.0830942 2.1735 10.9511
31 Ar 0.0402859 6.74632 2.21532
32 Ar -0.0746317 6.66258 6.56414
33 Ar -0.160071 6.80692 11.2033
34 Ar -0.0438069 11.2929 2.37854
35 Ar 0.0698227 11.2975 6.83726
36 Ar -0.00827096 11.0492 10.9324
37 Ar 4.44762 2.21714 2.10512
38 Ar 4.36886 2.40865 6.50438
39 Ar 4.52354 2.28171 11.0381
40 Ar 4.29218 6.65853 2.05842
41 Ar 4.53371 6.65205 6.70913
42 Ar 4.30391 6.55884 11.1302
43 Ar 4.41899 11.0798 2.29919
44 Ar 4.58903 11.0111 6.70971
45 Ar 4.39794 11.0817 11.2443
46 Ar 8.89747 2.15219 2.31724
47 Ar 8.78898 2.23876 6.74167
48 Ar 9.00754 2.23968 11.1139
49 Ar 9.03282 6.74826 2.24164
50 Ar 9.01991 6.67449 6.57092
51 Ar 8.80314 6.59315 11.2832
52 Ar 8.85614 11.2135 2.06086
53 Ar 8.92765 11.2206 6.92441
54 Ar 8.86019 11.0179 11.1236
55 Ar 2.28936 -0.0263774 2.10899
56 Ar 2.47739 -0.0595521 6.53422
57 Ar 2.23654 -0.13818 11.0338
58 Ar 2.06793 4.40486 2.19444
59 Ar 2.18381 4.38942 6.70718
60 Ar 2.11094 4.34303 10.9188
61 Ar 2.12009 8.89646 2.22884
62 Ar 2.31368 8.86394 6.76767
63 Ar 2.26296 8.85867 11.2582
64 Ar 6.63334 0.0227915 2.37117
65 Ar 6.78567 -0.0176902 6.73308
66 Ar 6.87216 0.15513 11.2331
67 Ar 6.859 4.53977 2.32444
68 Ar 6.54126 4.57615 6.65508
69 Ar 6.59281 4.54435 11.2149
70 Ar 6.66703 8.9802 2.13013
71 Ar 6.81562 8.8373 6.63626
72 Ar 6.73698 8.97518 11.2491
73 Ar 11.0674 0.0159654 2.22518
74 Ar 11.0138 0.0635636 6.55908
75 Ar 11.2141 -0.0385367 11.0951
76 Ar 11.2421 4.42159 2.05749
77 Ar 11.0125 4.42592 6.76801
78 Ar 11.0261 4.41599 11.1432
79 Ar 11.1203 8.95075 2.13501
80 Ar 11.1061 9.04995 6.70796
81 Ar 11.2024 8.81788 11.0904
82 Ar 2.2797 2.1426 -0.125139
83 Ar 2.06947 2.22054 4.43924
84 Ar 2.05931 2.14442 8.81623
85 Ar 2.09083 6.55324 -0.0286763
86 Ar 2.07407 6.74818 4.63132
87 Ar 2.16558 6.72058 8.94153
88 Ar 2.20049 11.1899 0.0532433
89 Ar 2.32307 11.1352 4.49676
90 Ar 2.45635 11.2928 8.89967
91 Ar 6.69489 2.18348 -0.0632191
92 Ar 6.69276 2.16427 4.4306
93 Ar 6.83541 2.34611 8.88939
94 Ar 6.64859 6.65151 0.030365
95 Ar 6.6233 6.76359 4.37041
96 Ar 6.64251 6.69731 8.95283
97 Ar 6.61183 11.0859 0.14499
98 Ar 6.78706 11.0725 4.41126
99 Ar 6.6808 11.1439 9.10295
100 Ar 11.011 2.18448 0.00485526
101 Ar 10.9915 2.13716 4.46608
102 Ar 11.163 2.22401 8.75034
103 Ar 11.1835 6.71246 0.0796894
104 Ar 11.2747 6.7475 4.33191
105 Ar 11.2009 6.71823 8.92469
106 Ar 11.1394 11.124 -0.0986772
107 Ar 10.8783 11.2682 4.67044
108 Ar 11.0943 11.0902 8.98195
ITEM: TIMESTEP
12020
ITEM: NUMBER OF ATOMS
108
ITEM: BOX BOUNDS pp pp pp
0.0000000000000000e+00 1.3349999400000000e+01
0.0000000000000000e+00 1.3349999400000000e+01
0.0000000000000000e+00 1.3349999400000000e+01
ITEM: ATOMS id element xu yu zu
1 Ar -0.0811845 0.0100846 -0.077735
2 Ar -0.0311487 0.0983116 4.51628
3 Ar -0.0332266 -0.0144672 8.91212
4 Ar -0.0736499 4.2274 -0.234124
5 Ar -0.190677 4.26475 4.46524
6 Ar -0.193138 4.56195 8.71921
7 Ar -0.0259979 8.9126 0.0561666
8 Ar 0.042559 9.02275 4.57386
9 Ar 0.197553 8.81302 8.87144
10 Ar 4.57631 0.0461076 0.0825062
11 Ar 4.54764 0.0243215 4.4225
12 Ar 4.49303 0.0944365 8.90279
13 Ar 4.48082 4.47195 0.219138
14 Ar 4.33366 4.43088 4.2993
15 Ar 4.23393 4.35454 8.79808
16 Ar 4.48935 8.86296 0.0561714
17 Ar 4.56092 8.81058 4.45702
18 Ar 4.51234 9.06175 9.03746
19 Ar 8.84493 -0.121829 0.16098
20 Ar 8.71498 -0.0273803 4.40791
21 Ar 8.9492 0.000217938 9.00097
22 Ar 8.93517 4.27404 0.0145267
23 Ar 8.97067 4.50095 4.28816
24 Ar 8.8785 4.39584 8.96
25 Ar 9.14746 8.93897 -0.0520138
26 Ar 9.09295 8.82635 4.41896
27 Ar 9.00268 8.77878 8.81243
28 Ar 0.0423043 1.98218 2.09204
29 Ar 0.042827 2.31081 6.66648
30 Ar -0.0996763 2.15833 10.9451
31 Ar 0.0358539 6.7433 2.20225
32 Ar -0.0757078 6.66634 6.5439
33 Ar -0.167062 6.82028 11.1845
34 Ar -0.0421672 11.2788 2.36355
35 Ar 0.0798564 11.3077 6.85285
36 Ar 0.00613959 11.0485 10.9245
37 Ar 4.45612 2.24861 2.10341
38 Ar 4.36291 2.40981 6.50533
39 Ar 4.5272 2.25834 11.0407
40 Ar 4.2974 6.65886 2.06355
41 Ar 4.55833 6.66419 6.71707
42 Ar 4.31691 6.55322 11.1484
43 Ar 4.41111 11.0802 2.2952
44 Ar 4.59154 11.0171 6.70935
45 Ar 4.40375 11.0849 11.2422
46 Ar 8.87587 2.15395 2.3445
47 Ar 8.79641 2.24219 6.72869
48 Ar 9.01924 2.23225 11.1224
49 Ar 9.03109 6.7453 2.2203
50 Ar 9.0141 6.659 6.57458
51 Ar 8.78893 6.58014 11.2904
52 Ar 8.85582 11.2199 2.07516
53 Ar 8.9248 11.2168 6.91914
54 Ar 8.85799 11.0403 11.1338
55 Ar 2.2786 -0.0422336 2.12949
56 Ar 2.47124 -0.0527799 6.54395
57 Ar 2.21741 -0.121934 11.0328
58 Ar 2.08247 4.40661 2.19671
59 Ar 2.18873 4.36531 6.68803
60 Ar 2.10334 4.34176 10.9219
61 Ar 2.11652 8.90425 2.22012
62 Ar 2.30781 8.85955 6.77318
63 Ar 2.27678 8.84359 11.2818
64 Ar 6.62375 0.0129038 2.3574
65 Ar 6.8101 -0.0146628 6.72747
66 Ar 6.88044 0.151002 11.2438
67 Ar 6.86062 4.53516 2.31233
68 Ar 6.54361 4.56892 6.67335
69 Ar 6.59077 4.54184 11.1952
70 Ar 6.65979 8.97398 2.12257
71 Ar 6.80308 8.81903 6.63389
72 Ar 6.71717 8.98029 11.2553
73 Ar 11.0734 0.0126474 2.24773
74 Ar 11.0134 0.0534869 6.5484
75 Ar 11.1939 -0.0183095 11.0782
76 Ar 11.2396 4.41212 2.05659
77 Ar 11.003 4.42551 6.77277
78 Ar 11.0265 4.42899 11.1383
79 Ar 11.1054 8.95244 2.15046
80 Ar 11.1123 9.05438 6.70535
81 Ar 11.2142 8.83502 11.0749
82 Ar 2.27763 2.14242 -0.128098
83 Ar 2.09604 2.22125 4.43712
84 Ar 2.09318 2.1415 8.83032
85 Ar 2.08705 6.58039 -0.00575138
86 Ar 2.07753 6.7617 4.63893
87 Ar 2.17241 6.73518 8.92881
88 Ar 2.19624 11.2036 0.0670587
89 Ar 2.31804 11.1401 4.50561
90 Ar 2.42994 11.3037 8.88577
91 Ar 6.70636 2.18319 -0.0664952
92 Ar 6.68327 2.17204 4.43023
93 Ar 6.82847 2.34936 8.88527
94 Ar 6.63979 6.65514 0.0164742
95 Ar 6.63453 6.75488 4.38508
96 Ar 6.65785 6.70424 8.94943
97 Ar 6.60569 11.0947 0.15661
98 Ar 6.77248 11.051 4.40529
99 Ar 6.69874 11.1411 9.11539
100 Ar 11.0042 2.19662 0.00751281
101 Ar 10.9979 2.11503 4.47935
102 Ar 11.1693 2.20966 8.76577
103 Ar 11.1973 6.72169 0.0611603
104 Ar 11.285 6.74355 4.35109
105 Ar 11.213 6.7128 8.9199
106 Ar 11.147 11.1036 -0.0994955
107 Ar 10.8573 11.2901 4.65927
108 Ar 11.1023 11.0915 8.98766
ITEM: TIMESTEP
12030
ITEM: NUMBER OF ATOMS
108
ITEM: BOX BOUNDS pp pp pp
0.0000000000000000e+00 1.3349999400000000e+01
0.0000000000000000e+00 1.3349999400000000e+01
0.0000000000000000e+00 1.3349999400000000e+01
ITEM: ATOMS id element xu yu zu
1 Ar -0.0846191 0.00206355 -0.0804821
2 Ar -0.0433217 0.0861496 4.51708
3 Ar -0.0262487 -0.0166121 8.90395
4 Ar -0.0696831 4.23726 -0.215309
5 Ar -0.19986 4.26695 4.46506
6 Ar -0.185631 4.55795 8.70023
7 Ar -0.00538217 8.90812 0.0490815
8 Ar 0.0203232 9.02872 4.56217
9 Ar 0.191051 8.83018 8.8583
10 Ar 4.5731 0.0439518 0.0828838
11 Ar 4.56283 0.0299739 4.40619
12 Ar 4.5127 0.0894599 8.91436
13 Ar 4.48522 4.46524 0.205747
14 Ar 4.33911 4.42799 4.28572
15 Ar 4.23583 4.34365 8.79101
16 Ar 4.50066 8.87697 0.0740392
17 Ar 4.55851 8.81164 4.46628
18 Ar 4.4886 9.04182 9.05322
19 Ar 8.83329 -0.112729 0.163124
20 Ar 8.71093 -0.0241735 4.42115
21 Ar 8.96325 -0.00010135 8.99759
22 Ar 8.93268 4.25187 -0.00385431
23 Ar 8.96104 4.53539 4.28766
24 Ar 8.87979 4.38728 8.96175
25 Ar 9.14419 8.96053 -0.0516161
26 Ar 9.09248 8.81219 4.39463
27 Ar 8.99428 8.77763 8.82245
28 Ar 0.0155667 1.97304 2.07831
29 Ar 0.0394467 2.30821 6.67783
30 Ar -0.115372 2.1442 10.9408
31 Ar 0.0311444 6.73855 2.1904
32 Ar -0.0773834 6.6702 6.52636
33 Ar -0.169725 6.82919 11.1652
34 Ar -0.0410677 11.2631 2.34804
35 Ar 0.0893023 11.3155 6.86583
36 Ar 0.0221166 11.0476 10.9193
37 Ar 4.46443 2.27962 2.10461
38 Ar 4.35942 2.40725 6.50785
39 Ar 4.52969 2.23491 11.0443
40 Ar 4.30331 6.66055 2.07312
41 Ar 4.57967 6.67754 6.72499
42 Ar 4.33087 6.54838 11.1664
43 Ar 4.40325 11.0806 2.29107
44 Ar 4.59496 11.0242 6.70806
45 Ar 4.41092 11.0902 11.2408
46 Ar 8.85432 2.15665 2.36905
47 Ar 8.805 2.24653 6.71355
48 Ar 9.0299 2.22421 11.1305
49 Ar 9.02762 6.74166 2.19767
50 Ar 9.00735 6.64275 6.5789
51 Ar 8.77715 6.56888 11.2956
52 Ar 8.85729 11.2223 2.09387
53 Ar 8.91964 11.211 6.91214
54 Ar 8.8575 11.064 11.1446
55 Ar 2.26804 -0.0569391 2.15222
56 Ar 2.46294 -0.044403 6.55541
57 Ar 2.19863 -0.102943 11.0345
58 Ar 2.09585 4.40804 2.19922
59 Ar 2.1923 4.34494 6.66756
60 Ar 2.09558 4.34166 10.9271
61 Ar 2.11458 8.91279 2.21227
62 Ar 2.30259 8.85707 6.77777
63 Ar 2.2896 8.82972 11.3041
64 Ar 6.61396 0.00271918 2.34042
65 Ar 6.83096 -0.0116412 6.72256
66 Ar 6.8858 0.143677 11.2523
67 Ar 6.85909 4.52956 2.29837
68 Ar 6.54917 4.56 6.69041
69 Ar 6.5888 4.5372 11.1745
70 Ar 6.65459 8.96481 2.11713
71 Ar 6.79053 8.80235 6.63267
72 Ar 6.69706 8.98274 11.261
73 Ar 11.0798 0.0083077 2.27025
74 Ar 11.0141 0.0442689 6.54217
75 Ar 11.1714 0.00145884 11.0624
76 Ar 11.2369 4.4024 2.05782
77 Ar 10.9932 4.42544 6.77391
78 Ar 11.0286 4.44322 11.1323
79 Ar 11.0927 8.9563 2.16852
80 Ar 11.1207 9.05719 6.70264
81 Ar 11.2232 8.85422 11.0593
82 Ar 2.27515 2.143 -0.131547
83 Ar 2.12456 2.22153 4.43327
84 Ar 2.12862 2.138 8.84451
85 Ar 2.08352 6.60675 0.0157486
86 Ar 2.08399 6.77302 4.64301
87 Ar 2.18071 6.74736 8.9158
88 Ar 2.19149 11.2158 0.0796113
89 Ar 2.31219 11.144 4.51408
90 Ar 2.40162 11.3112 8.87095
91 Ar 6.71816 2.18525 -0.0672227
92 Ar 6.67283 2.18316 4.43122
93 Ar 6.81742 2.35093 8.88207
94 Ar 6.63206 6.65942 0.00391618
95 Ar 6.64717 6.74456 4.399
96 Ar 6.67324 6.71104 8.94666
97 Ar 6.59979 11.1051 0.164787
98 Ar 6.75766 11.0288 4.40076
99 Ar 6.71612 11.139 9.12552
100 Ar 10.9991 2.20623 0.0101905
101 Ar 11.005 2.0953 4.49189
102 Ar 11.1741 2.19469 8.78233
103 Ar 11.2101 6.72868 0.0417291
104 Ar 11.294 6.73836 4.37067
105 Ar 11.2224 6.70758 8.91427
106 Ar 11.1562 11.0849 -0.0998351
107 Ar 10.8399 11.309 4.64373
108 Ar 11.1108 11.093 8.99231
ITEM: TIMESTEP
12040
ITEM: NUMBER OF ATOMS
108
ITEM: BOX BOUNDS pp pp pp
0.0000000000000000e+00 1.3349999400000000e+01
0.0000000000000000e+00 1.3349999400000000e+01
0.0000000000000000e+00 1.3349999400000000e+01
ITEM: ATOMS id element xu yu zu
1 Ar -0.0872758 -0.00720564 -0.0841931
2 Ar -0.0543118 0.0722827 4.51805
3 Ar -0.0193716 -0.0179401 8.89435
4 Ar -0.0641697 4.24886 -0.194988
5 Ar -0.20768 4.27088 4.46337
6 Ar -0.174482 4.55289 8.68499
7 Ar 0.0153707 8.90599 0.0414595
8 Ar -0.00284759 9.03644 4.54979
9 Ar 0.182032 8.84956 8.84488
10 Ar 4.56837 0.0406747 0.0810161
11 Ar 4.57648 0.035121 4.39116
12 Ar 4.53439 0.0847151 8.92528
13 Ar 4.48886 4.45752 0.188187
14 Ar 4.34557 4.42728 4.27274
15 Ar 4.24089 4.33449 8.78602
16 Ar 4.50953 8.89103 0.0907113
17 Ar 4.5534 8.8136 4.47472
18 Ar 4.46494 9.01904 9.06786
19 Ar 8.82332 -0.100533 0.161829
20 Ar 8.70856 -0.0209326 4.43527
21 Ar 8.97685 0.000489287 8.99364
22 Ar 8.92858 4.23339 -0.0207633
23 Ar 8.95287 4.56899 4.29047
24 Ar 8.88155 4.38197 8.96307
25 Ar 9.13656 8.98039 -0.0511486
26 Ar 9.08914 8.8 4.37107
27 Ar 8.98413 8.77689 8.83493
28 Ar -0.011206 1.96742 2.06624
29 Ar 0.0345617 2.30245 6.68926
30 Ar -0.129757 2.13168 10.9385
31 Ar 0.0260256 6.73214 2.18018
32 Ar -0.0794128 6.67409 6.51198
33 Ar -0.167767 6.83357 11.1456
34 Ar -0.0406382 11.2461 2.33221
35 Ar 0.0978183 11.3205 6.87564
36 Ar 0.0394816 11.0468 10.9172
37 Ar 4.47249 2.30931 2.10841
38 Ar 4.35871 2.40084 6.51183
39 Ar 4.53106 2.21176 11.049
40 Ar 4.30993 6.66345 2.08684
41 Ar 4.59739 6.69165 6.73284
42 Ar 4.34541 6.54427 11.1838
43 Ar 4.39544 11.081 2.28702
44 Ar 4.59923 11.0323 6.70619
45 Ar 4.41892 11.0978 11.24
46 Ar 8.83335 2.16023 2.39072
47 Ar 8.81459 2.25179 6.69664
48 Ar 9.0392 2.21566 11.1378
49 Ar 9.02265 6.73729 2.17368
50 Ar 8.99976 6.62632 6.58401
51 Ar 8.76804 6.5597 11.299
52 Ar 8.86039 11.2208 2.11645
53 Ar 8.91235 11.203 6.90357
54 Ar 8.85872 11.0885 11.1561
55 Ar 2.25778 -0.0699032 2.17696
56 Ar 2.45291 -0.0343891 6.56817
57 Ar 2.18061 -0.081763 11.0388
58 Ar 2.10776 4.40913 2.20192
59 Ar 2.19449 4.32874 6.64602
60 Ar 2.08773 4.34288 10.9344
61 Ar 2.11429 8.92192 2.20567
62 Ar 2.29811 8.85672 6.78115
63 Ar 2.30134 8.81735 11.3247
64 Ar 6.60429 -0.00748624 2.32079
65 Ar 6.84784 -0.00866474 6.71853
66 Ar 6.88819 0.13337 11.2582
67 Ar 6.85453 4.52326 2.28262
68 Ar 6.55775 4.54949 6.70606
69 Ar 6.58682 4.53032 11.1532
70 Ar 6.65161 8.95276 2.11396
71 Ar 6.77836 8.78769 6.63269
72 Ar 6.67713 8.98267 11.2661
73 Ar 11.086 0.00299189 2.29208
74 Ar 11.016 0.0359127 6.54089
75 Ar 11.1474 0.0200846 11.0484
76 Ar 11.2337 4.39272 2.06118
77 Ar 10.9832 4.42547 6.77154
78 Ar 11.0325 4.45844 11.1253
79 Ar 11.0827 8.96204 2.18857
80 Ar 11.1308 9.05851 6.69982
81 Ar 11.2291 8.87514 11.0438
82 Ar 2.27223 2.14423 -0.135184
83 Ar 2.15412 2.22108 4.42752
84 Ar 2.16494 2.13391 8.85861
85 Ar 2.08054 6.63178 0.0355514
86 Ar 2.09343 6.7821 4.64341
87 Ar 2.19034 6.75682 8.9028
88 Ar 2.18644 11.2265 0.090438
89 Ar 2.30558 11.147 4.52219
90 Ar 2.37235 11.3155 8.85575
91 Ar 6.72995 2.18952 -0.0654751
92 Ar 6.66155 2.19745 4.43359
93 Ar 6.80273 2.35058 8.87973
94 Ar 6.62543 6.66415 -0.00713055
95 Ar 6.66093 6.73273 4.41182
96 Ar 6.6885 6.71763 8.94468
97 Ar 6.59437 11.1168 0.169541
98 Ar 6.7429 11.0062 4.39765
99 Ar 6.73252 11.1376 9.13306
100 Ar 10.9959 2.21293 0.0129846
101 Ar 11.0126 2.0786 4.50343
102 Ar 11.1773 2.17955 8.79942
103 Ar 11.2216 6.7336 0.021704
104 Ar 11.3013 6.73197 4.39004
105 Ar 11.2289 6.7028 8.90772
106 Ar 11.1668 11.0684 -0.0997284
107 Ar 10.8262 11.3243 4.62409
108 Ar 11.1194 11.0948 8.99572
ITEM: TIMESTEP
12050
ITEM: NUMBER OF ATOMS
108
ITEM: BOX BOUNDS pp pp pp
0.0000000000000000e+00 1.3349999400000000e+01
0.0000000000000000e+00 1.3349999400000000e+01
0.0000000000000000e+00 1.3349999400000000e+01
ITEM: ATOMS id element xu yu zu
1 Ar -0.0894034 -0.0176205 -0.0889049
2 Ar -0.0636431 0.0569587 4.51916
3 Ar -0.0127323 -0.0181573 8.88367
4 Ar -0.0572118 4.262 -0.173598
5 Ar -0.21388 4.27613 4.46022
6 Ar -0.159798 4.54686 8.67351
7 Ar 0.0356561 8.90626 0.0333819
8 Ar -0.0265247 9.04583 4.53682
9 Ar 0.17078 8.87064 8.83139
10 Ar 4.56194 0.036652 0.0771318
11 Ar 4.58829 0.0396247 4.37783
12 Ar 4.55774 0.0797782 8.93536
13 Ar 4.49159 4.44921 0.166625
14 Ar 4.35313 4.42895 4.26092
15 Ar 4.24888 4.32742 8.78327
16 Ar 4.51569 8.90501 0.106001
17 Ar 4.54569 8.81629 4.48214
18 Ar 4.44167 8.99412 9.08121
19 Ar 8.81553 -0.0857301 0.157761
20 Ar 8.70733 -0.0176591 4.44981
21 Ar 8.98955 0.00198655 8.98887
22 Ar 8.92295 4.21904 -0.035932
23 Ar 8.94625 4.60121 4.29626
24 Ar 8.8838 4.37966 8.96404
25 Ar 9.12474 8.99821 -0.0507061
26 Ar 9.0829 8.78972 4.34895
27 Ar 8.9726 8.77662 8.84961
28 Ar -0.03737 1.96537 2.05615
29 Ar 0.0284751 2.29355 6.70048
30 Ar -0.142445 2.12126 10.9383
31 Ar 0.0203688 6.72422 2.17193
32 Ar -0.0814606 6.67791 6.50115
33 Ar -0.161085 6.83359 11.1257
34 Ar -0.0409716 11.228 2.31624
35 Ar 0.105046 11.3225 6.88173
36 Ar 0.0580305 11.046 10.9182
37 Ar 4.48022 2.33692 2.11445
38 Ar 4.36099 2.3906 6.51715
39 Ar 4.53139 2.18925 11.055
40 Ar 4.31728 6.66736 2.10429
41 Ar 4.61122 6.706 6.74057
42 Ar 4.36014 6.54088 11.2006
43 Ar 4.38774 11.0813 2.28329
44 Ar 4.60426 11.0413 6.70408
45 Ar 4.42728 11.1076 11.2396
46 Ar 8.81344 2.1646 2.40942
47 Ar 8.82496 2.25796 6.67838
48 Ar 9.04682 2.2068 11.1438
49 Ar 9.01643 6.73214 2.14827
50 Ar 8.99144 6.6103 6.59005
51 Ar 8.76176 6.55285 11.3005
52 Ar 8.8649 11.2158 2.14221
53 Ar 8.90318 11.1927 6.89355
54 Ar 8.86164 11.1135 11.1683
55 Ar 2.24787 -0.0806428 2.20343
56 Ar 2.44153 -0.0227599 6.58184
57 Ar 2.1637 -0.0590015 11.0455
58 Ar 2.11796 4.4099 2.20471
59 Ar 2.19534 4.31696 6.62369
60 Ar 2.07991 4.34551 10.9434
61 Ar 2.11563 8.93147 2.20065
62 Ar 2.29441 8.85863 6.78306
63 Ar 2.312 8.8067 11.3434
64 Ar 6.5951 -0.0174365 2.29912
65 Ar 6.86042 -0.00574 6.71556
66 Ar 6.88763 0.120406 11.2615
67 Ar 6.84714 4.51652 2.2652
68 Ar 6.56903 4.53757 6.72014
69 Ar 6.5848 4.52114 11.1313
70 Ar 6.65096 8.93804 2.11314
71 Ar 6.76697 8.77542 6.63401
72 Ar 6.65778 8.98028 11.2707
73 Ar 11.0918 -0.00322554 2.31261
74 Ar 11.0191 0.0282963 6.54485
75 Ar 11.1225 0.0369039 11.0366
76 Ar 11.2299 4.38335 2.06664
77 Ar 10.9734 4.42535 6.7659
78 Ar 11.0383 4.47437 11.1173
79 Ar 11.0756 8.96933 2.2099
80 Ar 11.1421 9.05851 6.69687
81 Ar 11.2319 8.89733 11.0287
82 Ar 2.26883 2.14604 -0.138676
83 Ar 2.18387 2.21969 4.41981
84 Ar 2.20148 2.1293 8.87245
85 Ar 2.07845 6.65496 0.0534771
86 Ar 2.10566 6.78896 4.64011
87 Ar 2.20105 6.76336 8.89006
88 Ar 2.18129 11.2354 0.0991555
89 Ar 2.29832 11.1489 4.53
90 Ar 2.34311 11.3166 8.84078
91 Ar 6.74132 2.19578 -0.0614178
92 Ar 6.64958 2.21462 4.43732
93 Ar 6.78499 2.34816 8.87817
94 Ar 6.61992 6.6691 -0.0165228
95 Ar 6.6754 6.71957 4.42329
96 Ar 6.70342 6.72389 8.94363
97 Ar 6.58971 11.1295 0.170998
98 Ar 6.72846 10.9837 4.39595
99 Ar 6.74762 11.1365 9.13783
100 Ar 10.9947 2.21651 0.0159459
101 Ar 11.0204 2.06544 4.51373
102 Ar 11.1788 2.16475 8.81642
103 Ar 11.2316 6.73669 0.00138242
104 Ar 11.3064 6.7245 4.40864
105 Ar 11.2324 6.69862 8.9002
106 Ar 11.1787 11.0546 -0.0991788
107 Ar 10.8164 11.3354 4.6008
108 Ar 11.128 11.097 8.99771
ITEM: TIMESTEP
12060
ITEM: NUMBER OF ATOMS
108
ITEM: BOX BOUNDS pp pp pp
0.0000000000000000e+00 1.3349999400000000e+01
0.0000000000000000e+00 1.3349999400000000e+01
0.0000000000000000e+00 1.3349999400000000e+01
ITEM: ATOMS id element xu yu zu
1 Ar -0.0912164 -0.0290138 -0.0945637
2 Ar -0.0709289 0.0404203 4.52036
3 Ar -0.00646094 -0.0170313 8.87227
4 Ar -0.0489594 4.27652 -0.151532
5 Ar -0.218211 4.2823 4.45576
6 Ar -0.141818 4.53996 8.66574
7 Ar 0.0548823 8.90884 0.0249192
8 Ar -0.0502624 9.05674 4.52335
9 Ar 0.157617 8.89283 8.81804
10 Ar 4.55364 0.0322661 0.0714859
11 Ar 4.59805 0.0433518 4.36652
12 Ar 4.58232 0.0742326 8.94441
13 Ar 4.49326 4.44071 0.141344
14 Ar 4.36185 4.43316 4.25082
15 Ar 4.25948 4.32273 8.78281
16 Ar 4.51899 8.91876 0.119762
17 Ar 4.53556 8.81956 4.48843
18 Ar 4.4191 8.96779 9.09313
19 Ar 8.81036 -0.0688833 0.151642
20 Ar 8.70674 -0.0143407 4.46431
21 Ar 9.00086 0.00433476 8.983
22 Ar 8.91597 4.20915 -0.0491737
23 Ar 8.9412 4.6315 4.3046
24 Ar 8.8865 4.38003 8.96469
25 Ar 9.10903 9.01375 -0.0503255
26 Ar 9.07376 8.78123 4.32888
27 Ar 8.96006 8.77693 8.86618
28 Ar -0.0623283 1.96681 2.04827
29 Ar 0.0215016 2.28165 6.71121
30 Ar -0.153112 2.11331 10.9405
31 Ar 0.0140614 6.71498 2.16592
32 Ar -0.0831227 6.68164 6.49412
33 Ar -0.149754 6.82956 11.1056
34 Ar -0.0421158 11.209 2.30029
35 Ar 0.110625 11.3215 6.8836
36 Ar 0.0775346 11.0456 10.9224
37 Ar 4.48759 2.36174 2.1223
38 Ar 4.36634 2.37666 6.52371
39 Ar 4.53077 2.1677 11.0623
40 Ar 4.32535 6.67205 2.12497
41 Ar 4.62104 6.72005 6.74811
42 Ar 4.3747 6.53819 11.2163
43 Ar 4.38024 11.0814 2.28008
44 Ar 4.6099 11.0511 6.70205
45 Ar 4.43555 11.1195 11.2394
46 Ar 8.79502 2.16968 2.42512
47 Ar 8.83585 2.26497 6.65924
48 Ar 9.05244 2.19788 11.1484
49 Ar 9.00922 6.72621 2.12146
50 Ar 8.9825 6.5953 6.59718
51 Ar 8.75838 6.5485 11.3002
52 Ar 8.87047 11.208 2.17028
53 Ar 8.89244 11.18 6.88218
54 Ar 8.86621 11.1385 11.181
55 Ar 2.23831 -0.0888016 2.23128
56 Ar 2.42914 -0.00959631 6.59605
57 Ar 2.14825 -0.0352904 11.0541
58 Ar 2.12629 4.41039 2.2075
59 Ar 2.19498 4.30968 6.60088
60 Ar 2.07225 4.3496 10.9541
61 Ar 2.11853 8.94125 2.19751
62 Ar 2.29148 8.86283 6.78328
63 Ar 2.32161 8.79799 11.3598
64 Ar 6.58672 -0.0268642 2.27606
65 Ar 6.86852 -0.00284752 6.71379
66 Ar 6.88411 0.105209 11.2621
67 Ar 6.8372 4.50965 2.24632
68 Ar 6.58264 4.52449 6.73253
69 Ar 6.58276 4.50969 11.1091
70 Ar 6.65267 8.92094 2.11467
71 Ar 6.75668 8.76588 6.63668
72 Ar 6.63937 8.97583 11.2746
73 Ar 11.0968 -0.0102293 2.33124
74 Ar 11.0231 0.0211943 6.55411
75 Ar 11.0974 0.0512933 11.0276
76 Ar 11.2252 4.37453 2.07413
77 Ar 10.9643 4.42489 6.75729
78 Ar 11.0461 4.49066 11.1087
79 Ar 11.0716 8.97776 2.23178
80 Ar 11.154 9.05732 6.69381
81 Ar 11.2317 8.9202 11.0143
82 Ar 2.26491 2.14838 -0.14167
83 Ar 2.21306 2.21718 4.41017
84 Ar 2.23762 2.12427 8.88584
85 Ar 2.07759 6.67579 0.0694346
86 Ar 2.12039 6.79369 4.63317
87 Ar 2.21252 6.76686 8.87781
88 Ar 2.17624 11.2428 0.10548
89 Ar 2.29049 11.1499 4.53757
90 Ar 2.31492 11.3148 8.82664
91 Ar 6.75185 2.2037 -0.0552982
92 Ar 6.6371 2.23436 4.44237
93 Ar 6.76487 2.34356 8.87728
94 Ar 6.61552 6.67404 -0.0241581
95 Ar 6.69015 6.70532 4.43321
96 Ar 6.7178 6.72968 8.94361
97 Ar 6.58611 11.1429 0.169371
98 Ar 6.7146 10.9617 4.39557
99 Ar 6.76115 11.1355 9.13974
100 Ar 10.9955 2.21688 0.0190776
101 Ar 11.0285 2.05614 4.52259
102 Ar 11.1783 2.15086 8.83272
103 Ar 11.2397 6.73824 -0.0189621
104 Ar 11.3091 6.71613 4.42593
105 Ar 11.2328 6.69514 8.8917
106 Ar 11.192 11.0437 -0.098169
107 Ar 10.8105 11.3419 4.57456
108 Ar 11.1363 11.0997 8.9981
ITEM: TIMESTEP
12070
ITEM: NUMBER OF ATOMS
108
ITEM: BOX BOUNDS pp pp pp
0.0000000000000000e+00 1.3349999400000000e+01
0.0000000000000000e+00 1.3349999400000000e+01
0.0000000000000000e+00 1.3349999400000000e+01
ITEM: ATOMS id element xu yu zu
1 Ar -0.0928911 -0.0411537 -0.101026
2 Ar -0.0758944 0.0229102 4.52163
3 Ar -0.000668923 -0.0144149 8.86056
4 Ar -0.0396067 4.29221 -0.129131
5 Ar -0.22044 4.28899 4.45015
6 Ar -0.12089 4.53231 8.66152
7 Ar 0.0724951 8.91357 0.0161405
8 Ar -0.0736087 9.06891 4.50954
9 Ar 0.142899 8.91551 8.80506
10 Ar 4.54335 0.0278824 0.0643588
11 Ar 4.60569 0.0461786 4.35748
12 Ar 4.60765 0.0676946 8.95229
13 Ar 4.49373 4.43233 0.112738
14 Ar 4.37174 4.44 4.24301
15 Ar 4.27235 4.32065 8.78458
16 Ar 4.51936 8.93211 0.131902
17 Ar 4.52321 8.82325 4.49352
18 Ar 4.39755 8.94074 9.10356
19 Ar 8.80813 -0.0505786 0.144193
20 Ar 8.70641 -0.010969 4.47838
21 Ar 9.01028 0.00742937 8.97576
22 Ar 8.90794 4.20395 -0.0603906
23 Ar 8.93767 4.65932 4.3149
24 Ar 8.8896 4.38269 8.96508
25 Ar 9.0898 9.02689 -0.049999
26 Ar 9.06174 8.77434 4.31142
27 Ar 8.94687 8.77793 8.88436
28 Ar -0.0855391 1.97158 2.04278
29 Ar 0.0139581 2.267 6.72115
30 Ar -0.16152 2.10814 10.9452
31 Ar 0.00701777 6.70468 2.16231
32 Ar -0.0839612 6.68526 6.49102
33 Ar -0.13401 6.82195 11.0854
34 Ar -0.044064 11.1894 2.28449
35 Ar 0.114216 11.3174 6.88085
36 Ar 0.0977406 11.0455 10.9296
37 Ar 4.49452 2.38319 2.13148
38 Ar 4.37472 2.35933 6.53143
39 Ar 4.52932 2.14741 11.0709
40 Ar 4.33409 6.67729 2.14825
41 Ar 4.62683 6.73323 6.75538
42 Ar 4.38875 6.53623 11.2308
43 Ar 4.37308 11.0815 2.27755
44 Ar 4.61598 11.0617 6.70039
45 Ar 4.44334 11.1333 11.2391
46 Ar 8.77847 2.17538 2.43788
47 Ar 8.84696 2.27269 6.63969
48 Ar 9.05572 2.18922 11.1512
49 Ar 9.00132 6.71949 2.09333
50 Ar 8.97304 6.58193 6.60554
51 Ar 8.75791 6.54672 11.2983
52 Ar 8.87669 11.1979 2.19973
53 Ar 8.88048 11.165 6.86954
54 Ar 8.87234 11.163 11.1941
55 Ar 2.22908 -0.0941609 2.26009
56 Ar 2.41604 0.00495729 6.61044
57 Ar 2.13453 -0.0112629 11.0645
58 Ar 2.13267 4.41067 2.21018
59 Ar 2.19359 4.30678 6.57787
60 Ar 2.06492 4.35516 10.9662
61 Ar 2.12289 8.95106 2.19649
62 Ar 2.28929 8.8693 6.78164
63 Ar 2.3302 8.79137 11.3735
64 Ar 6.57943 -0.0355175 2.25228
65 Ar 6.87205 4.84479e-05 6.71332
66 Ar 6.87771 0.0882774 11.2602
67 Ar 6.82504 4.50293 2.22626
68 Ar 6.59816 4.51055 6.74315
69 Ar 6.58075 4.49607 11.0868
70 Ar 6.65667 8.90182 2.11847
71 Ar 6.74779 8.75931 6.64067
72 Ar 6.62219 8.96961 11.2778
73 Ar 11.1005 -0.0178534 2.34742
74 Ar 11.0281 0.0143143 6.56843
75 Ar 11.0729 0.0626964 11.0218
76 Ar 11.2192 4.36646 2.08349
77 Ar 10.9562 4.42392 6.74613
78 Ar 11.056 4.50693 11.0995
79 Ar 11.0708 8.98689 2.25345
80 Ar 11.1658 9.0551 6.69065
81 Ar 11.2288 8.94312 11.0009
82 Ar 2.26045 2.15121 -0.143804
83 Ar 2.24106 2.21346 4.39869
84 Ar 2.27278 2.119 8.89862
85 Ar 2.07828 6.69384 0.0834155
86 Ar 2.13723 6.79639 4.6228
87 Ar 2.2244 6.76727 8.86624
88 Ar 2.17151 11.2487 0.109239
89 Ar 2.28222 11.1498 4.54497
90 Ar 2.28872 11.3102 8.8139
91 Ar 6.76114 2.21286 -0.04743
92 Ar 6.62435 2.25626 4.44864
93 Ar 6.74309 2.33677 8.87695
94 Ar 6.61222 6.67876 -0.0299798
95 Ar 6.70471 6.69025 4.44147
96 Ar 6.73139 6.73484 8.94467
97 Ar 6.58381 11.1564 0.164927
98 Ar 6.70151 10.9406 4.3964
99 Ar 6.77294 11.1344 9.13879
100 Ar 10.9985 2.21413 0.0223373
101 Ar 11.0366 2.05089 4.52983
102 Ar 11.176 2.13844 8.84779
103 Ar 11.246 6.73861 -0.0390882
104 Ar 11.3089 6.70708 4.44149
105 Ar 11.2303 6.69246 8.88226
106 Ar 11.2061 11.0358 -0.0966693
107 Ar 10.8085 11.3437 4.54624
108 Ar 11.144 11.1031 8.99678
ITEM: TIMESTEP
12080
ITEM: NUMBER OF ATOMS
108
ITEM: BOX BOUNDS pp pp pp
0.0000000000000000e+00 1.3349999400000000e+01
0.0000000000000000e+00 1.3349999400000000e+01
0.0000000000000000e+00 1.3349999400000000e+01
ITEM: ATOMS id element xu yu zu
1 Ar -0.0945621 -0.0537471 -0.108068
2 Ar -0.0783926 0.00467789 4.52292
3 Ar 0.00456337 -0.010267 8.84895
4 Ar -0.0293888 4.3089 -0.106695
5 Ar -0.220356 4.29588 4.4436
6 Ar -0.0974431 4.52401 8.66063
7 Ar 0.0880044 8.92019 0.00712207
8 Ar -0.0961137 9.08201 4.49555
9 Ar 0.126997 8.93801 8.79269
10 Ar 4.53099 0.0238279 0.0560595
11 Ar 4.61124 0.0479932 4.35086
12 Ar 4.63319 0.0598344 8.95887
13 Ar 4.49285 4.42427 0.0813025
14 Ar 4.38273 4.44949 4.238
15 Ar 4.28711 4.32134 8.78847
16 Ar 4.51685 8.94493 0.142377
17 Ar 4.50894 8.82723 4.49738
18 Ar 4.37733 8.91369 9.11244
19 Ar 8.80904 -0.0313794 0.136075
20 Ar 8.70606 -0.00755629 4.49164
21 Ar 9.01736 0.0111251 8.9669
22 Ar 8.89924 4.20355 -0.0695753
23 Ar 8.93561 4.68418 4.32654
24 Ar 8.89303 4.38722 8.96525
25 Ar 9.06752 9.0376 -0.0496895
26 Ar 9.04695 8.76878 4.29702
27 Ar 8.93341 8.77975 8.90383
28 Ar -0.106522 1.97942 2.03976
29 Ar 0.00615371 2.24997 6.73005
30 Ar -0.167533 2.10593 10.9524
31 Ar -0.000811904 6.6936 2.16121
32 Ar -0.0835477 6.68877 6.49183
33 Ar -0.114213 6.81132 11.0652
34 Ar -0.0467482 11.1698 2.26897
35 Ar 0.115528 11.3104 6.8732
36 Ar 0.118372 11.046 10.9398