ITEM: TIMESTEP
86000
ITEM: NUMBER OF ATOMS
108
ITEM: BOX BOUNDS pp pp pp
0.0000000000000000e+00 1.3349999400000000e+01
0.0000000000000000e+00 1.3349999400000000e+01
0.0000000000000000e+00 1.3349999400000000e+01
ITEM: ATOMS id element xu yu zu
1 Ar 0.173847 -0.0386859 0.112462
2 Ar -0.0516627 -0.0239311 4.40155
3 Ar -0.130609 0.0561998 9.06892
4 Ar 0.0617665 4.59644 -0.100619
5 Ar 0.078721 4.53611 4.62514
6 Ar 0.0472408 4.55992 8.94328
7 Ar 0.0373958 8.83478 0.142983
8 Ar -0.138175 8.96004 4.26639
9 Ar 0.0703664 8.90178 8.96656
10 Ar 4.24702 -0.0326705 -0.0634012
11 Ar 4.46953 0.00319037 4.46417
12 Ar 4.40732 -0.129826 8.98057
13 Ar 4.62788 4.66158 0.13541
14 Ar 4.21442 4.42139 4.43268
15 Ar 4.58186 4.34884 8.94113
16 Ar 4.64756 8.85465 0.0414936
17 Ar 4.59483 8.78731 4.57853
18 Ar 4.44088 8.63829 8.98425
19 Ar 9.02 0.139218 -0.0102245
20 Ar 8.87275 0.228736 4.3046
21 Ar 8.94388 -0.329081 8.91147
22 Ar 8.83282 4.33523 0.0114188
23 Ar 8.88555 4.59744 4.30788
24 Ar 8.99005 4.54911 9.0196
25 Ar 8.76869 8.80381 0.0538485
26 Ar 8.89128 8.7195 4.24814
27 Ar 8.94852 8.94008 9.06714
28 Ar 0.0807425 2.44245 2.14352
29 Ar 0.0123215 2.25125 6.79665
30 Ar -0.00943779 2.35004 11.1291
31 Ar 0.0731135 6.62819 2.28506
32 Ar -0.0811513 6.79571 6.80097
33 Ar 0.0110461 6.62423 11.1391
34 Ar -0.133983 11.1456 2.18536
35 Ar -0.124035 11.1315 6.867
36 Ar 0.0930856 11.1087 11.1617
37 Ar 4.43034 2.22717 2.06585
38 Ar 4.32803 2.13054 6.74232
39 Ar 4.39338 2.06082 11.0138
40 Ar 4.30759 6.66021 2.29428
41 Ar 4.61821 6.62419 6.67411
42 Ar 4.45515 6.57352 10.9503
43 Ar 4.42511 11.0816 2.36144
44 Ar 4.46839 11.0146 6.61391
45 Ar 4.3486 11.0501 11.1914
46 Ar 8.71185 2.27517 2.15889
47 Ar 9.02256 2.18318 6.80034
48 Ar 8.96846 2.18525 10.9638
49 Ar 9.03254 6.67017 2.0902
50 Ar 9.12498 6.69148 6.78094
51 Ar 8.60153 6.71997 11.1545
52 Ar 8.8892 11.1814 2.17193
53 Ar 8.80935 11.0918 6.57393
54 Ar 8.94688 11.1618 11.292
55 Ar 2.27677 -0.179347 2.15563
56 Ar 2.12117 0.0391399 6.55963
57 Ar 2.04733 0.177153 10.9865
58 Ar 2.32398 4.57439 2.05472
59 Ar 2.26219 4.43426 6.66676
60 Ar 2.34288 4.51685 11.372
61 Ar 2.56167 8.83447 2.42545
62 Ar 2.25623 8.91715 6.88712
63 Ar 2.15795 8.92325 11.1532
64 Ar 6.41709 0.170791 1.92726
65 Ar 6.55433 -0.0356533 6.64261
66 Ar 6.61808 -0.0505344 11.1148
67 Ar 6.59556 4.72516 2.23102
68 Ar 6.74727 4.35773 6.66602
69 Ar 6.62073 4.4272 11.1705
70 Ar 6.60189 8.72192 2.33727
71 Ar 6.78491 8.9789 6.47005
72 Ar 6.57288 8.94308 11.1397
73 Ar 11.1351 0.0372695 2.23664
74 Ar 11.0243 -0.12728 6.62102
75 Ar 11.1888 0.0511125 11.2125
76 Ar 11.1169 4.39929 2.07255
77 Ar 11.1157 4.40143 6.54313
78 Ar 11.1131 4.48515 11.0877
79 Ar 10.9812 8.88081 2.16772
80 Ar 10.9813 8.91829 6.71769
81 Ar 11.0209 9.06365 11.2544
82 Ar 2.17826 2.09872 0.0161155
83 Ar 2.281 2.30334 4.25824
84 Ar 2.20644 2.23453 8.94615
85 Ar 2.45685 6.76736 -0.220334
86 Ar 2.16543 6.54203 4.6553
87 Ar 2.15798 6.61128 8.6883
88 Ar 2.4124 10.9058 0.0523795
89 Ar 2.23063 11.1587 4.42755
90 Ar 2.1314 11.0902 8.87868
91 Ar 6.69742 2.29364 -0.00117341
92 Ar 6.61422 2.38739 4.44423
93 Ar 6.7666 2.06177 9.01044
94 Ar 6.65385 6.77826 0.0618211
95 Ar 6.89426 6.6273 4.66981
96 Ar 6.63686 6.60888 8.76415
97 Ar 6.69146 11.3755 0.0353241
98 Ar 6.68436 11.3352 4.5185
99 Ar 6.44518 11.1543 8.86662
100 Ar 11.3419 2.2111 0.0642887
101 Ar 11.1645 2.29581 4.29256
102 Ar 11.1375 2.09835 8.84854
103 Ar 11.1535 6.64667 -0.275162
104 Ar 11.2699 6.58748 4.15592
105 Ar 11.2723 6.80697 8.99085
106 Ar 11.1741 11.1196 -0.039861
107 Ar 10.9533 10.9669 4.40321
108 Ar 11.1006 11.1163 9.12623
ITEM: TIMESTEP
86010
ITEM: NUMBER OF ATOMS
108
ITEM: BOX BOUNDS pp pp pp
0.0000000000000000e+00 1.3349999400000000e+01
0.0000000000000000e+00 1.3349999400000000e+01
0.0000000000000000e+00 1.3349999400000000e+01
ITEM: ATOMS id element xu yu zu
1 Ar 0.183425 -0.0277955 0.107728
2 Ar -0.0404407 -0.0272366 4.42787
3 Ar -0.134769 0.0827902 9.08112
4 Ar 0.0745725 4.6119 -0.132153
5 Ar 0.0779663 4.51821 4.63497
6 Ar 0.0400776 4.57286 8.92268
7 Ar 0.0288844 8.85444 0.141872
8 Ar -0.143558 8.96364 4.2695
9 Ar 0.0654214 8.89132 8.96664
10 Ar 4.24759 -0.0440452 -0.0646084
11 Ar 4.42304 -0.00921406 4.46355
12 Ar 4.40652 -0.100135 8.97752
13 Ar 4.61958 4.65347 0.151995
14 Ar 4.22935 4.43393 4.42234
15 Ar 4.57335 4.33868 8.93375
16 Ar 4.63702 8.85012 0.0247152
17 Ar 4.60251 8.81082 4.57187
18 Ar 4.44255 8.65911 8.98636
19 Ar 9.02078 0.117877 -0.0106306
20 Ar 8.86767 0.202437 4.29261
21 Ar 8.93621 -0.345057 8.90649
22 Ar 8.8556 4.31809 0.000316192
23 Ar 8.86197 4.58628 4.31651
24 Ar 8.99776 4.53118 9.02741
25 Ar 8.7834 8.80955 0.0527841
26 Ar 8.90204 8.7139 4.2476
27 Ar 8.95206 8.9407 9.06372
28 Ar 0.081388 2.44845 2.15082
29 Ar 0.00930913 2.26205 6.79583
30 Ar -0.00339603 2.32801 11.1176
31 Ar 0.0508724 6.61586 2.29113
32 Ar -0.081399 6.79306 6.77966
33 Ar 0.0289319 6.60431 11.1383
34 Ar -0.111515 11.14 2.20067
35 Ar -0.121145 11.126 6.88054
36 Ar 0.0896451 11.1312 11.1624
37 Ar 4.42651 2.22954 2.07166
38 Ar 4.34591 2.12596 6.75181
39 Ar 4.38977 2.09013 11.0208
40 Ar 4.31998 6.66363 2.29459
41 Ar 4.63674 6.62074 6.66883
42 Ar 4.42821 6.57209 10.9357
43 Ar 4.44969 11.1004 2.37077
44 Ar 4.46596 11.0106 6.62049
45 Ar 4.34527 11.0447 11.2011
46 Ar 8.72574 2.26823 2.14437
47 Ar 9.04375 2.18085 6.77089
48 Ar 8.97326 2.19009 10.9796
49 Ar 9.03967 6.66774 2.09002
50 Ar 9.13239 6.67515 6.77604
51 Ar 8.62851 6.73816 11.1578
52 Ar 8.86191 11.1443 2.18885
53 Ar 8.81495 11.1156 6.56669
54 Ar 8.95508 11.1808 11.2943
55 Ar 2.27704 -0.171906 2.14598
56 Ar 2.12196 0.0328731 6.55199
57 Ar 2.04871 0.183394 10.9827
58 Ar 2.33323 4.57719 2.04134
59 Ar 2.23835 4.42269 6.67119
60 Ar 2.33896 4.50268 11.3659
61 Ar 2.56671 8.85653 2.41293
62 Ar 2.24797 8.91114 6.90043
63 Ar 2.14696 8.91813 11.1661
64 Ar 6.43095 0.162684 1.91731
65 Ar 6.55484 -0.043935 6.62872
66 Ar 6.6258 -0.0491094 11.1156
67 Ar 6.59131 4.71672 2.22726
68 Ar 6.76313 4.33262 6.67507
69 Ar 6.63257 4.42302 11.1869
70 Ar 6.60551 8.73463 2.35954
71 Ar 6.75843 8.95833 6.46915
72 Ar 6.56977 8.9667 11.1555
73 Ar 11.1378 0.051774 2.24035
74 Ar 11.0366 -0.112986 6.62073
75 Ar 11.1827 0.0381709 11.2084
76 Ar 11.0938 4.38855 2.07112
77 Ar 11.1258 4.387 6.52102
78 Ar 11.0995 4.48634 11.0974
79 Ar 10.9861 8.89297 2.17092
80 Ar 10.9736 8.8987 6.73255
81 Ar 11.049 9.05919 11.2468
82 Ar 2.18125 2.10736 0.0335108
83 Ar 2.27663 2.29368 4.25896
84 Ar 2.21269 2.25621 8.94753
85 Ar 2.45212 6.77526 -0.215808
86 Ar 2.14535 6.53428 4.6713
87 Ar 2.17156 6.60146 8.69429
88 Ar 2.42379 10.9245 0.0554584
89 Ar 2.21901 11.1833 4.41011
90 Ar 2.1229 11.0882 8.87275
91 Ar 6.68226 2.28689 0.00968927
92 Ar 6.61107 2.38342 4.43721
93 Ar 6.76742 2.05496 9.00231
94 Ar 6.64725 6.81285 0.0550729
95 Ar 6.8891 6.60668 4.66838
96 Ar 6.65195 6.6156 8.76796
97 Ar 6.69583 11.3776 0.0230638
98 Ar 6.6754 11.3369 4.52211
99 Ar 6.43288 11.158 8.8874
100 Ar 11.3523 2.20159 0.0730328
101 Ar 11.1465 2.29353 4.28157
102 Ar 11.1204 2.0859 8.86032
103 Ar 11.1613 6.65161 -0.278825
104 Ar 11.2549 6.59209 4.14006
105 Ar 11.2729 6.81076 8.98713
106 Ar 11.157 11.1025 -0.042969
107 Ar 10.9617 10.9692 4.42052
108 Ar 11.0907 11.1454 9.11899
ITEM: TIMESTEP
86020
ITEM: NUMBER OF ATOMS
108
ITEM: BOX BOUNDS pp pp pp
0.0000000000000000e+00 1.3349999400000000e+01
0.0000000000000000e+00 1.3349999400000000e+01
0.0000000000000000e+00 1.3349999400000000e+01
ITEM: ATOMS id element xu yu zu
1 Ar 0.190187 -0.0181045 0.101131
2 Ar -0.0295843 -0.0297446 4.45413
3 Ar -0.137341 0.107382 9.089
4 Ar 0.0866193 4.62557 -0.160465
5 Ar 0.0759029 4.49774 4.64188
6 Ar 0.0316339 4.58293 8.90177
7 Ar 0.0210158 8.87375 0.140359
8 Ar -0.146001 8.96664 4.2758
9 Ar 0.0583208 8.88139 8.96781
10 Ar 4.24953 -0.0552576 -0.0678278
11 Ar 4.37634 -0.0197164 4.46202
12 Ar 4.40375 -0.069781 8.97244
13 Ar 4.60947 4.64203 0.164224
14 Ar 4.2491 4.44677 4.4125
15 Ar 4.56332 4.32838 8.92493
16 Ar 4.62444 8.84752 0.00834856
17 Ar 4.60739 8.83433 4.56473
18 Ar 4.44423 8.68438 8.98643
19 Ar 9.02047 0.0965514 -0.010668
20 Ar 8.86167 0.174354 4.28208
21 Ar 8.92612 -0.35688 8.90131
22 Ar 8.87942 4.30322 -0.0125385
23 Ar 8.84092 4.57176 4.32627
24 Ar 9.00446 4.51271 9.03287
25 Ar 8.79889 8.81865 0.0508846
26 Ar 8.91341 8.71041 4.25028
27 Ar 8.9529 8.94182 9.05849
28 Ar 0.0825892 2.45296 2.1603
29 Ar 0.00584448 2.27167 6.79306
30 Ar 0.00209572 2.30718 11.1066
31 Ar 0.0309497 6.60397 2.29393
32 Ar -0.0827988 6.79033 6.75493
33 Ar 0.0485799 6.58761 11.1361
34 Ar -0.0875319 11.1338 2.21622
35 Ar -0.118021 11.1201 6.89094
36 Ar 0.0857373 11.1538 11.1646
37 Ar 4.42193 2.23354 2.07915
38 Ar 4.36522 2.12239 6.76052
39 Ar 4.38745 2.12186 11.0309
40 Ar 4.33524 6.66763 2.2967
41 Ar 4.65226 6.61652 6.663
42 Ar 4.40279 6.57118 10.9234
43 Ar 4.47761 11.1193 2.37867
44 Ar 4.46141 11.0079 6.62822
45 Ar 4.34238 11.0405 11.2088
46 Ar 8.74135 2.26174 2.13136
47 Ar 9.0621 2.17847 6.73985
48 Ar 8.97779 2.19441 10.998
49 Ar 9.04495 6.6632 2.08887
50 Ar 9.13771 6.6578 6.77047
51 Ar 8.65848 6.75534 11.1606
52 Ar 8.83337 11.108 2.20585
53 Ar 8.82146 11.1391 6.56059
54 Ar 8.96024 11.1993 11.2962
55 Ar 2.27651 -0.162245 2.13909
56 Ar 2.12312 0.0258786 6.54672
57 Ar 2.05249 0.185392 10.9817
58 Ar 2.33944 4.57849 2.02863
59 Ar 2.21528 4.40924 6.67795
60 Ar 2.33549 4.48522 11.3556
61 Ar 2.5653 8.87905 2.39916
62 Ar 2.23953 8.90529 6.90817
63 Ar 2.13718 8.91204 11.1774
64 Ar 6.44796 0.152245 1.91335
65 Ar 6.5574 -0.0493162 6.61681
66 Ar 6.63446 -0.0472579 11.1174
67 Ar 6.58912 4.70582 2.2257
68 Ar 6.77911 4.30694 6.68552
69 Ar 6.64489 4.41836 11.2024
70 Ar 6.60987 8.74976 2.38136
71 Ar 6.73357 8.93719 6.47316
72 Ar 6.56836 8.99102 11.17
73 Ar 11.1407 0.0654968 2.24352
74 Ar 11.0502 -0.0979477 6.61983
75 Ar 11.1765 0.0252724 11.2053
76 Ar 11.0714 4.37907 2.06997
77 Ar 11.1358 4.37376 6.50124
78 Ar 11.086 4.48584 11.1071
79 Ar 10.9937 8.90558 2.17165
80 Ar 10.9683 8.88087 6.74637
81 Ar 11.0791 9.05111 11.2385
82 Ar 2.18538 2.1195 0.0498497
83 Ar 2.27024 2.28165 4.26101
84 Ar 2.21843 2.27935 8.94738
85 Ar 2.44479 6.78448 -0.20677
86 Ar 2.12637 6.53212 4.68546
87 Ar 2.18747 6.59105 8.70417
88 Ar 2.43149 10.9439 0.0595675
89 Ar 2.2058 11.2055 4.39486
90 Ar 2.11696 11.0888 8.86786
91 Ar 6.66537 2.28022 0.0169251
92 Ar 6.60744 2.37769 4.42958
93 Ar 6.7678 2.04946 8.9915
94 Ar 6.64123 6.8444 0.0472155
95 Ar 6.88047 6.58589 4.66479
96 Ar 6.67002 6.62324 8.77297
97 Ar 6.69948 11.3749 0.0106095
98 Ar 6.66731 11.3362 4.52114
99 Ar 6.4238 11.1587 8.90851
100 Ar 11.3602 2.1924 0.0796815
101 Ar 11.1287 2.29112 4.27227
102 Ar 11.103 2.07603 8.87277
103 Ar 11.1672 6.65761 -0.278683
104 Ar 11.2374 6.59719 4.12956
105 Ar 11.2705 6.81329 8.98463
106 Ar 11.1401 11.0869 -0.0435707
107 Ar 10.9713 10.9743 4.43818
108 Ar 11.0831 11.1729 9.10913
ITEM: TIMESTEP
86030
ITEM: NUMBER OF ATOMS
108
ITEM: BOX BOUNDS pp pp pp
0.0000000000000000e+00 1.3349999400000000e+01
0.0000000000000000e+00 1.3349999400000000e+01
0.0000000000000000e+00 1.3349999400000000e+01
ITEM: ATOMS id element xu yu zu
1 Ar 0.19395 -0.00985018 0.0928812
2 Ar -0.0195572 -0.0312822 4.47984
3 Ar -0.13809 0.129544 9.09217
4 Ar 0.0975142 4.63679 -0.18469
5 Ar 0.0724844 4.47505 4.64534
6 Ar 0.0216999 4.59 8.88089
7 Ar 0.0139817 8.89248 0.138512
8 Ar -0.145457 8.96882 4.28529
9 Ar 0.0492735 8.87209 8.97012
10 Ar 4.25297 -0.065766 -0.0730052
11 Ar 4.33044 -0.0280549 4.45977
12 Ar 4.39911 -0.03927 8.96562
13 Ar 4.59792 4.62777 0.171609
14 Ar 4.27282 4.4596 4.40355
15 Ar 4.55234 4.31842 8.91481
16 Ar 4.60979 8.84707 -0.00711256
17 Ar 4.60895 8.85747 4.55714
18 Ar 4.44597 8.71354 8.98454
19 Ar 9.01916 0.075553 -0.0100764
20 Ar 8.85483 0.144854 4.27292
21 Ar 8.9134 -0.364008 8.8959
22 Ar 8.9037 4.29082 -0.0269234
23 Ar 8.82282 4.55394 4.3369
24 Ar 9.01003 4.49396 9.03581
25 Ar 8.81504 8.83093 0.0481814
26 Ar 8.92509 8.70881 4.25652
27 Ar 8.95104 8.94367 9.05163
28 Ar 0.0842264 2.45614 2.1718
29 Ar 0.00189324 2.27965 6.78861
30 Ar 0.00673865 2.28823 11.0962
31 Ar 0.0136552 6.59258 2.29334
32 Ar -0.0854119 6.78763 6.72742
33 Ar 0.069575 6.57456 11.132
34 Ar -0.0625731 11.1274 2.23157
35 Ar -0.114853 11.1139 6.89815
36 Ar 0.0814824 11.1762 11.1681
37 Ar 4.4169 2.23866 2.08838
38 Ar 4.38559 2.11994 6.76804
39 Ar 4.38658 2.15538 11.0439
40 Ar 4.35288 6.67261 2.30062
41 Ar 4.66446 6.61149 6.65685
42 Ar 4.37939 6.57075 10.9133
43 Ar 4.50826 11.138 2.38479
44 Ar 4.45471 11.0065 6.63708
45 Ar 4.33974 11.0377 11.2142
46 Ar 8.75833 2.25559 2.11998
47 Ar 9.07737 2.17592 6.70753
48 Ar 8.98178 2.19784 11.0187
49 Ar 9.04806 6.65672 2.08656
50 Ar 9.14081 6.63937 6.76426
51 Ar 8.6909 6.77133 11.1628
52 Ar 8.80407 11.0729 2.22278
53 Ar 8.82851 11.1617 6.55558
54 Ar 8.96248 11.2166 11.2973
55 Ar 2.27518 -0.15039 2.13494
56 Ar 2.12463 0.0184459 6.5444
57 Ar 2.05902 0.183304 10.9833
58 Ar 2.34234 4.57853 2.01709
59 Ar 2.19373 4.39413 6.68662
60 Ar 2.33268 4.46489 11.3415
61 Ar 2.55781 8.90161 2.38438
62 Ar 2.23107 8.89957 6.91022
63 Ar 2.12854 8.90542 11.1868
64 Ar 6.46777 0.139792 1.9155
65 Ar 6.56179 -0.0517517 6.60694
66 Ar 6.64375 -0.0446959 11.1201
67 Ar 6.58931 4.69267 2.22591
68 Ar 6.795 4.28106 6.69743
69 Ar 6.65743 4.41367 11.2167
70 Ar 6.61495 8.76695 2.40216
71 Ar 6.71119 8.91606 6.48204
72 Ar 6.56896 9.01558 11.1829
73 Ar 11.1439 0.0777512 2.24615
74 Ar 11.0649 -0.0823132 6.61838
75 Ar 11.1703 0.0127222 11.2036
76 Ar 11.0503 4.37097 2.06914
77 Ar 11.1451 4.362 6.48408
78 Ar 11.0731 4.48366 11.1166
79 Ar 11.0038 8.91851 2.17007
80 Ar 10.9654 8.86525 6.75891
81 Ar 11.111 9.03991 11.2291
82 Ar 2.19062 2.13488 0.0647937
83 Ar 2.26219 2.26785 4.26446
84 Ar 2.22347 2.30349 8.94573
85 Ar 2.43498 6.7945 -0.193325
86 Ar 2.10898 6.53543 4.69736
87 Ar 2.20536 6.58022 8.71743
88 Ar 2.43527 10.9634 0.0646577
89 Ar 2.19123 11.2246 4.38198
90 Ar 2.1137 11.0919 8.86431
91 Ar 6.64711 2.27378 0.0205381
92 Ar 6.60333 2.36997 4.42131
93 Ar 6.76804 2.04527 8.97833
94 Ar 6.63599 6.8722 0.0384661
95 Ar 6.86857 6.56543 4.65904
96 Ar 6.69064 6.63158 8.77933
97 Ar 6.70231 11.3675 -0.00186886
98 Ar 6.66005 11.3331 4.51594
99 Ar 6.41786 11.1568 8.92951
100 Ar 11.3658 2.18359 0.0839466
101 Ar 11.1113 2.28846 4.26467
102 Ar 11.0853 2.06894 8.88567
103 Ar 11.1714 6.66462 -0.274686
104 Ar 11.2179 6.60246 4.12471
105 Ar 11.2651 6.81428 8.98345
106 Ar 11.1238 11.0732 -0.0413104
107 Ar 10.9819 10.9821 4.45588
108 Ar 11.0781 11.1982 9.09679
ITEM: TIMESTEP
86040
ITEM: NUMBER OF ATOMS
108
ITEM: BOX BOUNDS pp pp pp
0.0000000000000000e+00 1.3349999400000000e+01
0.0000000000000000e+00 1.3349999400000000e+01
0.0000000000000000e+00 1.3349999400000000e+01
ITEM: ATOMS id element xu yu zu
1 Ar 0.194657 -0.00315661 0.0832428
2 Ar -0.010799 -0.0316974 4.50453
3 Ar -0.136826 0.1489 9.09037
4 Ar 0.106911 4.64496 -0.204142
5 Ar 0.0677964 4.45061 4.6449
6 Ar 0.0101039 4.59407 8.86041
7 Ar 0.00795733 8.91043 0.136375
8 Ar -0.141979 8.96999 4.29787
9 Ar 0.0385911 8.86353 8.97351
10 Ar 4.25807 -0.0750475 -0.0799595
11 Ar 4.28638 -0.0340314 4.45705
12 Ar 4.39282 -0.00909394 8.95742
13 Ar 4.5853 4.61129 0.173866
14 Ar 4.2996 4.47209 4.39581
15 Ar 4.54099 4.30927 8.90353
16 Ar 4.59307 8.84888 -0.0212518
17 Ar 4.60678 8.87994 4.54916
18 Ar 4.44775 8.74591 8.98087
19 Ar 9.01693 0.0551843 -0.00858239
20 Ar 8.8473 0.114332 4.26504
21 Ar 8.89795 -0.366042 8.89024
22 Ar 8.9278 4.28101 -0.0425426
23 Ar 8.80796 4.53297 4.34812
24 Ar 9.01437 4.47515 9.03616
25 Ar 8.83171 8.84609 0.044712
26 Ar 8.93682 8.70888 4.26654
27 Ar 8.94657 8.9465 9.04331
28 Ar 0.0861223 2.45811 2.18506
29 Ar -0.00258422 2.28553 6.78278
30 Ar 0.0103091 2.27176 11.087
31 Ar -0.000870674 6.58174 2.2894
32 Ar -0.0893086 6.785 6.69788
33 Ar 0.0914538 6.56545 11.1257
34 Ar -0.0371776 11.1214 2.24633
35 Ar -0.111779 11.1076 6.90216
36 Ar 0.0769897 11.1981 11.1728
37 Ar 4.41172 2.24442 2.09942
38 Ar 4.40662 2.11866 6.77393
39 Ar 4.38728 2.19001 11.0599
40 Ar 4.3724 6.67888 2.30626
41 Ar 4.67309 6.60563 6.6507
42 Ar 4.35844 6.57082 10.9054
43 Ar 4.54087 11.1562 2.38878
44 Ar 4.44599 11.0066 6.64703
45 Ar 4.33717 11.0364 11.217
46 Ar 8.77622 2.24963 2.11028
47 Ar 9.08941 2.17306 6.67428
48 Ar 8.98496 2.20007 11.0415
49 Ar 9.04871 6.64855 2.08296
50 Ar 9.1416 6.61991 6.75743
51 Ar 8.72522 6.78595 11.1646
52 Ar 8.77452 11.0396 2.23951
53 Ar 8.83578 11.1826 6.55159
54 Ar 8.96201 11.232 11.2974
55 Ar 2.27305 -0.136402 2.13335
56 Ar 2.12649 0.0108513 6.54553
57 Ar 2.06855 0.177418 10.9873
58 Ar 2.34178 4.57758 2.00726
59 Ar 2.17437 4.37775 6.69663
60 Ar 2.3306 4.44227 11.3238
61 Ar 2.54474 8.92382 2.36882
62 Ar 2.22271 8.89392 6.90669
63 Ar 2.12097 8.89873 11.1941
64 Ar 6.49 0.12572 1.92366
65 Ar 6.56779 -0.0513369 6.5991
66 Ar 6.65334 -0.0411616 11.1236
67 Ar 6.59207 4.67747 2.22737
68 Ar 6.81059 4.25537 6.71077
69 Ar 6.67001 4.40939 11.2297
70 Ar 6.62067 8.78577 2.42139
71 Ar 6.69193 8.89546 6.49562
72 Ar 6.57184 9.03987 11.1939
73 Ar 11.1476 0.0879385 2.24824
74 Ar 11.0807 -0.0662218 6.61646
75 Ar 11.164 0.000804696 11.2033
76 Ar 11.0309 4.36436 2.06871
77 Ar 11.1535 4.35195 6.46983
78 Ar 11.0614 4.4799 11.1258
79 Ar 11.0164 8.93158 2.16644
80 Ar 10.9647 8.8522 6.76993
81 Ar 11.1441 9.02617 11.2185
82 Ar 2.19685 2.15314 0.078037
83 Ar 2.25289 2.2529 4.26943
84 Ar 2.22764 2.32804 8.94271
85 Ar 2.42285 6.8048 -0.175663
86 Ar 2.09367 6.54388 4.70666
87 Ar 2.22477 6.56921 8.73347
88 Ar 2.43501 10.983 0.0706314
89 Ar 2.17559 11.24 4.37162
90 Ar 2.11309 11.0975 8.86232
91 Ar 6.62791 2.26761 0.0207108
92 Ar 6.59876 2.36004 4.41239
93 Ar 6.76846 2.04241 8.96323
94 Ar 6.63169 6.89568 0.0290455
95 Ar 6.85372 6.54578 4.65116
96 Ar 6.7133 6.64041 8.78711
97 Ar 6.70423 11.3553 -0.0141497
98 Ar 6.65355 11.3276 4.50711
99 Ar 6.41498 11.1525 8.94998
100 Ar 11.3692 2.17528 0.0856374
101 Ar 11.0944 2.28543 4.25881
102 Ar 11.0673 2.06473 8.89874
103 Ar 11.1742 6.67253 -0.266878
104 Ar 11.1965 6.60766 4.12557
105 Ar 11.2568 6.81342 8.98361
106 Ar 11.1085 11.0617 -0.0360168
107 Ar 10.9935 10.9924 4.47333
108 Ar 11.076 11.2208 9.08214
ITEM: TIMESTEP
86050
ITEM: NUMBER OF ATOMS
108
ITEM: BOX BOUNDS pp pp pp
0.0000000000000000e+00 1.3349999400000000e+01
0.0000000000000000e+00 1.3349999400000000e+01
0.0000000000000000e+00 1.3349999400000000e+01
ITEM: ATOMS id element xu yu zu
1 Ar 0.192372 0.00196104 0.0725271
2 Ar -0.00369296 -0.0308663 4.52773
3 Ar -0.133418 0.165155 9.08348
4 Ar 0.114528 4.64965 -0.218358
5 Ar 0.0620378 4.42497 4.64023
6 Ar -0.00327659 4.59525 8.84064
7 Ar 0.00309886 8.92741 0.133966
8 Ar -0.135716 8.96999 4.31339
9 Ar 0.0266741 8.85579 8.9778
10 Ar 4.26494 -0.0826275 -0.0883985
11 Ar 4.24517 -0.0375295 4.45409
12 Ar 4.38514 0.0202826 8.94823
13 Ar 4.57198 4.59321 0.170924
14 Ar 4.32847 4.48394 4.38956
15 Ar 4.52985 4.3014 8.89127
16 Ar 4.57437 8.85295 -0.0337432
17 Ar 4.60064 8.9015 4.54094
18 Ar 4.44953 8.78068 8.97562
19 Ar 9.01385 0.035721 -0.0059155
20 Ar 8.83926 0.0832086 4.25831
21 Ar 8.87986 -0.362748 8.88437
22 Ar 8.95114 4.27388 -0.0590215
23 Ar 8.79654 4.5091 4.35969
24 Ar 9.01742 4.45648 9.03393
25 Ar 8.8487 8.86373 0.0405149
26 Ar 8.94834 8.71038 4.28042
27 Ar 8.93963 8.95052 9.03374
28 Ar 0.0880551 2.4589 2.19974
29 Ar -0.00762776 2.28891 6.77583
30 Ar 0.0126685 2.2582 11.0791
31 Ar -0.0126541 6.57152 2.28233
32 Ar -0.0945705 6.78247 6.66711
33 Ar 0.113733 6.56042 11.117
34 Ar -0.0118884 11.1159 2.26012
35 Ar -0.108873 11.1011 6.903
36 Ar 0.0723523 11.2192 11.1785
37 Ar 4.40671 2.25033 2.11225
38 Ar 4.4279 2.1186 6.77778
39 Ar 4.38964 2.22501 11.0787
40 Ar 4.39328 6.68663 2.31339
41 Ar 4.67798 6.59891 6.6449
42 Ar 4.34037 6.57142 10.9
43 Ar 4.57452 11.1735 2.39033
44 Ar 4.43545 11.0084 6.65795
45 Ar 4.33444 11.037 11.2171
46 Ar 8.79457 2.24374 2.1022
47 Ar 9.09814 2.16976 6.64048
48 Ar 8.98706 2.20076 11.0662
49 Ar 9.04671 6.63904 2.07803
50 Ar 9.14004 6.59952 6.74999
51 Ar 8.7609 6.79908 11.1658
52 Ar 8.74529 11.0084 2.25585
53 Ar 8.84302 11.2013 6.54854
54 Ar 8.95913 11.2449 11.2961
55 Ar 2.27013 -0.120382 2.13408
56 Ar 2.12869 0.00334775 6.55057
57 Ar 2.08121 0.168143 10.9936
58 Ar 2.33779 4.576 1.99968
59 Ar 2.15775 4.3606 6.70733
60 Ar 2.32924 4.41804 11.3029
61 Ar 2.52668 8.94531 2.35273
62 Ar 2.21452 8.88829 6.89785
63 Ar 2.11445 8.8924 11.1993
64 Ar 6.51429 0.110486 1.93748
65 Ar 6.57513 -0.0482984 6.59315
66 Ar 6.66289 -0.0364342 11.1276
67 Ar 6.59747 4.66038 2.22951
68 Ar 6.82567 4.23031 6.72543
69 Ar 6.68245 4.40592 11.241
70 Ar 6.62697 8.80567 2.4386
71 Ar 6.67623 8.87582 6.51356
72 Ar 6.57716 9.06339 11.2029
73 Ar 11.1519 0.0955575 2.24981
74 Ar 11.0975 -0.0498024 6.6142
75 Ar 11.1577 -0.0102293 11.2044
76 Ar 11.0137 4.35931 2.06878
77 Ar 11.1608 4.34383 6.4587
78 Ar 11.0514 4.47475 11.1344
79 Ar 11.0311 8.94456 2.16119
80 Ar 10.9662 8.84197 6.77927
81 Ar 11.1779 9.01052 11.2066
82 Ar 2.20393 2.17378 0.0893154
83 Ar 2.24273 2.23745 4.27602
84 Ar 2.23075 2.35233 8.93855
85 Ar 2.4086 6.81486 -0.154056
86 Ar 2.08084 6.55692 4.71307
87 Ar 2.2452 6.55826 8.75157
88 Ar 2.43067 11.0022 0.0773403
89 Ar 2.15923 11.2511 4.3639
90 Ar 2.11503 11.1054 8.86205
91 Ar 6.60818 2.26167 0.0177902
92 Ar 6.5938 2.34776 4.40284
93 Ar 6.76931 2.04084 8.94671
94 Ar 6.62846 6.91448 0.0191616
95 Ar 6.83632 6.52737 4.64122
96 Ar 6.73741 6.6495 8.79637
97 Ar 6.70513 11.3387 -0.0259635
98 Ar 6.64774 11.3198 4.49546
99 Ar 6.415 11.1464 8.96949
100 Ar 11.3707 2.16757 0.0846704
101 Ar 11.0784 2.28192 4.25463
102 Ar 11.049 2.06337 8.91172
103 Ar 11.1758 6.68118 -0.255387
104 Ar 11.1739 6.61256 4.13203
105 Ar 11.246 6.81047 8.98508
106 Ar 11.0944 11.0524 -0.0277038
107 Ar 11.006 11.005 4.49019
108 Ar 11.0766 11.2402 9.0654
ITEM: TIMESTEP
86060
ITEM: NUMBER OF ATOMS
108
ITEM: BOX BOUNDS pp pp pp
0.0000000000000000e+00 1.3349999400000000e+01
0.0000000000000000e+00 1.3349999400000000e+01
0.0000000000000000e+00 1.3349999400000000e+01
ITEM: ATOMS id element xu yu zu
1 Ar 0.187259 0.00558486 0.0610819
2 Ar 0.00146605 -0.0287024 4.54902
3 Ar -0.127796 0.178114 9.07157
4 Ar 0.120155 4.6506 -0.227146
5 Ar 0.0554848 4.39878 4.63113
6 Ar -0.018503 4.59373 8.82189
7 Ar -0.000460405 8.94331 0.131274
8 Ar -0.126905 8.96872 4.33159
9 Ar 0.013992 8.84896 8.98271
10 Ar 4.27371 -0.0881089 -0.0979403
11 Ar 4.20777 -0.0385351 4.45114
12 Ar 4.37639 0.048437 8.93846
13 Ar 4.55827 4.57417 0.162935
14 Ar 4.35849 4.49485 4.38501
15 Ar 4.51951 4.29521 8.87821
16 Ar 4.5539 8.85921 -0.044357
17 Ar 4.59042 8.92194 4.5327
18 Ar 4.4512 8.817 8.969
19 Ar 9.00997 0.0173948 -0.00182753
20 Ar 8.83097 0.0519196 4.25262
21 Ar 8.85939 -0.354077 8.87834
22 Ar 8.97311 4.2695 -0.0759102
23 Ar 8.78858 4.48271 4.37138
24 Ar 9.01914 4.43813 9.02919
25 Ar 8.86578 8.88337 0.0356278
26 Ar 8.95945 8.71306 4.2981
27 Ar 8.93046 8.9559 9.02309
28 Ar 0.0897746 2.45849 2.21545
29 Ar -0.0132699 2.28946 6.76806
30 Ar 0.0137643 2.24783 11.073
31 Ar -0.0218687 6.56203 2.2725
32 Ar -0.101282 6.77999 6.63595
33 Ar 0.135936 6.55937 11.1058
34 Ar 0.0127437 11.1114 2.27262
35 Ar -0.106142 11.0944 6.90077
36 Ar 0.0676444 11.239 11.1849
37 Ar 4.40212 2.25596 2.12682
38 Ar 4.44901 2.11982 6.77916
39 Ar 4.39374 2.25966 11.0998
40 Ar 4.41503 6.69594 2.32173
41 Ar 4.67905 6.59135 6.63982
42 Ar 4.32555 6.57265 10.8969
43 Ar 4.6082 11.1897 2.3891
44 Ar 4.42339 11.0119 6.66966
45 Ar 4.33136 11.0395 11.2144
46 Ar 8.81288 2.23782 2.09562
47 Ar 9.10352 2.16585 6.60656
48 Ar 8.98787 2.19966 11.0922
49 Ar 9.0419 6.62863 2.07184
50 Ar 9.13614 6.5784 6.74198
51 Ar 8.7974 6.81063 11.1665
52 Ar 8.71703 10.9799 2.2716
53 Ar 8.84999 11.2175 6.54641
54 Ar 8.95421 11.2548 11.2931
55 Ar 2.26645 -0.102476 2.13679
56 Ar 2.13122 -0.00384151 6.55985
57 Ar 2.09695 0.155984 11.0018
58 Ar 2.33054 4.57413 1.99487
59 Ar 2.14427 4.3433 6.71798
60 Ar 2.32841 4.39295 11.2792
61 Ar 2.50427 8.96576 2.33637
62 Ar 2.20653 8.88266 6.88415
63 Ar 2.10897 8.88684 11.2022
64 Ar 6.54029 0.09459 1.95644
65 Ar 6.58356 -0.0429752 6.58891
66 Ar 6.67207 -0.0303528 11.1322
67 Ar 6.60548 4.64155 2.23169
68 Ar 6.83999 4.20634 6.74121
69 Ar 6.69464 4.40364 11.2504
70 Ar 6.63374 8.82599 2.45339
71 Ar 6.66428 8.85754 6.53537
72 Ar 6.58498 9.08556 11.2097
73 Ar 11.157 0.100213 2.25089
74 Ar 11.115 -0.033178 6.61176
75 Ar 11.1517 -0.0201751 11.2071
76 Ar 10.999 4.35588 2.06946
77 Ar 11.1667 4.33777 6.45087
78 Ar 11.0437 4.46846 11.1424
79 Ar 11.0477 8.95719 2.15487
80 Ar 10.9697 8.83467 6.78683
81 Ar 11.212 8.99362 11.1934
82 Ar 2.21162 2.19624 0.0984148
83 Ar 2.23208 2.22211 4.28434
84 Ar 2.23266 2.37559 8.93353
85 Ar 2.39249 6.82423 -0.128851
86 Ar 2.07085 6.57385 4.71632
87 Ar 2.26606 6.54761 8.77096
88 Ar 2.42235 11.021 0.0845874
89 Ar 2.14255 11.2577 4.35895
90 Ar 2.11931 11.1154 8.86354
91 Ar 6.5884 2.25582 0.0122647
92 Ar 6.58851 2.33304 4.39274
93 Ar 6.77078 2.04052 8.92935
94 Ar 6.62638 6.92846 0.00899739
95 Ar 6.81691 6.51056 4.62935
96 Ar 6.76239 6.65861 8.80712
97 Ar 6.70494 11.318 -0.0370045
98 Ar 6.64255 11.3099 4.482
99 Ar 6.41781 11.139 8.9876
100 Ar 11.3704 2.16056 0.0810722
101 Ar 11.0633 2.27782 4.25207
102 Ar 11.0306 2.06476 8.92436
103 Ar 11.1767 6.69037 -0.240421
104 Ar 11.1504 6.61698 4.14375
105 Ar 11.2327 6.80523 8.98774
106 Ar 11.0818 11.0456 -0.0165565
107 Ar 11.0194 11.0197 4.50613
108 Ar 11.08 11.2562 9.04683
ITEM: TIMESTEP
86070
ITEM: NUMBER OF ATOMS
108
ITEM: BOX BOUNDS pp pp pp
0.0000000000000000e+00 1.3349999400000000e+01
0.0000000000000000e+00 1.3349999400000000e+01
0.0000000000000000e+00 1.3349999400000000e+01
ITEM: ATOMS id element xu yu zu
1 Ar 0.17957 0.00787804 0.0492793
2 Ar 0.00450151 -0.0251672 4.568
3 Ar -0.119961 0.187695 9.05489
4 Ar 0.123662 4.64774 -0.230592
5 Ar 0.0484455 4.37271 4.6176
6 Ar -0.0355661 4.5898 8.8044
7 Ar -0.00261662 8.95802 0.128266
8 Ar -0.115862 8.96617 4.35213
9 Ar 0.00106121 8.84313 8.98783
10 Ar 4.28443 -0.0911962 -0.108135
11 Ar 4.17501 -0.0371523 4.44841
12 Ar 4.36692 0.0750041 8.92852
13 Ar 4.54444 4.55485 0.150254
14 Ar 4.38873 4.50453 4.38233
15 Ar 4.51052 4.29107 8.86458
16 Ar 4.53195 8.86748 -0.0529583
17 Ar 4.57619 8.9411 4.5247
18 Ar 4.45263 8.85394 8.96128
19 Ar 9.00531 0.000376064 0.00388581
20 Ar 8.8227 0.020907 4.24786
21 Ar 8.83697 -0.340162 8.87223
22 Ar 8.99317 4.26791 -0.0926943
23 Ar 8.78399 4.45429 4.38295
24 Ar 9.01953 4.42022 9.02215
25 Ar 8.88268 8.90445 0.030088
26 Ar 8.96992 8.71674 4.31942
27 Ar 8.91935 8.96277 9.01153
28 Ar 0.0910213 2.4568 2.23168
29 Ar -0.0195259 2.28695 6.75969
30 Ar 0.0136224 2.24072 11.0686
31 Ar -0.0288021 6.55339 2.26037
32 Ar -0.10951 6.77743 6.60524
33 Ar 0.15761 6.562 11.0924
34 Ar 0.0361583 11.108 2.28356
35 Ar -0.103522 11.0876 6.8956
36 Ar 0.0629211 11.2572 11.1917
37 Ar 4.3982 2.26098 2.14304
38 Ar 4.46954 2.12233 6.7777
39 Ar 4.39965 2.2932 11.1227
40 Ar 4.43716 6.70675 2.33089
41 Ar 4.67631 6.58303 6.63581
42 Ar 4.31432 6.5746 10.8965
43 Ar 4.6408 11.2046 2.3848
44 Ar 4.41018 11.0173 6.68193
45 Ar 4.32774 11.044 11.209
46 Ar 8.83071 2.23178 2.09038
47 Ar 9.10559 2.16115 6.57297
48 Ar 8.98719 2.19655 11.1194
49 Ar 9.03422 6.61778 2.06453
50 Ar 9.12997 6.5568 6.73345
51 Ar 8.83423 6.82058 11.1667
52 Ar 8.69047 10.9543 2.28652
53 Ar 8.85653 11.2309 6.54515
54 Ar 8.94767 11.2614 11.288
55 Ar 2.262 -0.0828726 2.14107
56 Ar 2.13404 -0.0105259 6.57355
57 Ar 2.11561 0.14153 11.0117
58 Ar 2.32036 4.57231 1.99329
59 Ar 2.1342 4.32651 6.7278
60 Ar 2.32779 4.36786 11.2533
61 Ar 2.47821 8.98483 2.32001
62 Ar 2.19876 8.87704 6.86618
63 Ar 2.10455 8.88238 11.2028
64 Ar 6.56764 0.0785555 1.97986
65 Ar 6.5928 -0.0357911 6.58614
66 Ar 6.68059 -0.0228321 11.1371
67 Ar 6.61594 4.62114 2.23329
68 Ar 6.85335 4.18394 6.75779
69 Ar 6.7065 4.40285 11.2577
70 Ar 6.64082 8.84601 2.46546
71 Ar 6.65612 8.84092 6.56043
72 Ar 6.59522 9.10581 11.2143
73 Ar 11.163 0.101622 2.25153
74 Ar 11.1329 -0.0164699 6.60933
75 Ar 11.1458 -0.0288831 11.2109
76 Ar 10.9873 4.3541 2.07087
77 Ar 11.171 4.33384 6.44644
78 Ar 11.0387 4.46129 11.1494
79 Ar 11.0658 8.96916 2.1481
80 Ar 10.9751 8.83031 6.79257
81 Ar 11.2458 8.97614 11.1791
82 Ar 2.21967 2.21988 0.105178
83 Ar 2.22126 2.20747 4.29449
84 Ar 2.23324 2.39701 8.92794
85 Ar 2.37476 6.83254 -0.100468
86 Ar 2.06399 6.59387 4.7162
87 Ar 2.28677 6.53752 8.79082
88 Ar 2.41022 11.0392 0.0921335
89 Ar 2.126 11.2595 4.35687
90 Ar 2.12561 11.1271 8.86679
91 Ar 6.56902 2.24987 0.00473213
92 Ar 6.58298 2.31587 4.38222
93 Ar 6.77304 2.04138 8.91177
94 Ar 6.62549 6.93763 -0.00129723
95 Ar 6.79612 6.49569 4.61572
96 Ar 6.78761 6.66752 8.81935
97 Ar 6.70358 11.2937 -0.0469465
98 Ar 6.63792 11.298 4.4679
99 Ar 6.42327 11.1309 9.00391
100 Ar 11.3686 2.15437 0.0749778
101 Ar 11.0495 2.27301 4.25103
102 Ar 11.0122 2.06866 8.93643
103 Ar 11.1771 6.69989 -0.222252
104 Ar 11.1266 6.62079 4.16025
105 Ar 11.2171 6.79756 8.9914
106 Ar 11.0708 11.0414 -0.00290429
107 Ar 11.0337 11.0362 4.52081
108 Ar 11.0857 11.2687 9.02673
ITEM: TIMESTEP
86080
ITEM: NUMBER OF ATOMS
108
ITEM: BOX BOUNDS pp pp pp
0.0000000000000000e+00 1.3349999400000000e+01
0.0000000000000000e+00 1.3349999400000000e+01
0.0000000000000000e+00 1.3349999400000000e+01
ITEM: ATOMS id element xu yu zu
1 Ar 0.169614 0.00906656 0.0375001
2 Ar 0.00537762 -0.0202784 4.58435
3 Ar -0.109979 0.193932 9.0339
4 Ar 0.124997 4.6412 -0.229041
5 Ar 0.0412133 4.34749 4.5998
6 Ar -0.0543765 4.58376 8.78842
7 Ar -0.00330312 8.97147 0.124877
8 Ar -0.102974 8.9624 4.37457
9 Ar -0.011578 8.83838 8.99268
10 Ar 4.29711 -0.0917117 -0.118488
11 Ar 4.14758 -0.0336121 4.44612
12 Ar 4.35709 0.0996896 8.91881
13 Ar 4.53071 4.5359 0.133427
14 Ar 4.41833 4.51267 4.38159
15 Ar 4.50336 4.2892 8.85062
16 Ar 4.50892 8.87753 -0.0594995
17 Ar 4.55812 8.95886 4.51723
18 Ar 4.45361 8.89059 8.95272
19 Ar 8.99989 -0.0152399 0.0113642
20 Ar 8.8148 -0.00939237 4.24395
21 Ar 8.8132 -0.321303 8.8661
22 Ar 9.01083 4.26914 -0.108818
23 Ar 8.78255 4.4244 4.39418
24 Ar 9.01863 4.40291 9.01305
25 Ar 8.89916 8.92637 0.0239368
26 Ar 8.97956 8.72125 4.34409
27 Ar 8.90667 8.97121 8.99922
28 Ar 0.0915449 2.45368 2.24788
29 Ar -0.0263833 2.28132 6.75096
30 Ar 0.0123332 2.23677 11.0659
31 Ar -0.0338184 6.54577 2.24651
32 Ar -0.119279 6.77462 6.57574
33 Ar 0.17834 6.56777 11.077
34 Ar 0.0577903 11.106 2.29272
35 Ar -0.100888 11.0806 6.88769
36 Ar 0.0582203 11.2736 11.1988
37 Ar 4.3951 2.26513 2.16074
38 Ar 4.48907 2.12616 6.7731