ITEM: TIMESTEP
96000
ITEM: NUMBER OF ATOMS
108
ITEM: BOX BOUNDS pp pp pp
0.0000000000000000e+00 1.3349999400000000e+01
0.0000000000000000e+00 1.3349999400000000e+01
0.0000000000000000e+00 1.3349999400000000e+01
ITEM: ATOMS id element xu yu zu
1 Ar 0.0898051 0.0590289 -0.116496
2 Ar -0.0159474 -0.00768817 4.45441
3 Ar 0.198837 0.142571 8.74675
4 Ar -0.0477099 4.51033 0.139746
5 Ar 0.325541 4.4516 4.55636
6 Ar -0.000611647 4.56271 9.00849
7 Ar -0.0579948 8.68341 0.0379334
8 Ar -0.0409183 8.83248 4.42941
9 Ar -0.0717175 8.8841 9.0949
10 Ar 4.35329 -0.030438 -0.201205
11 Ar 4.54544 -0.0894916 4.3295
12 Ar 4.51783 -0.177206 8.94363
13 Ar 4.56701 4.35852 -0.0947341
14 Ar 4.39368 4.5777 4.42258
15 Ar 4.53724 4.53382 8.92289
16 Ar 4.19004 9.01933 -0.103674
17 Ar 4.42854 9.04686 4.68394
18 Ar 4.28286 8.83078 8.94818
19 Ar 8.90421 -0.230651 -0.136972
20 Ar 8.88939 -0.0303405 4.35642
21 Ar 8.88955 0.082398 8.87634
22 Ar 8.76715 4.31634 0.0339224
23 Ar 8.95261 4.5415 4.4993
24 Ar 8.93918 4.43042 8.8433
25 Ar 8.91816 8.92002 0.000272813
26 Ar 9.00832 8.93966 4.4044
27 Ar 9.04452 8.88915 8.99004
28 Ar -0.157342 2.31866 2.11306
29 Ar -0.119236 2.18151 6.60735
30 Ar -0.075362 2.16128 11.1098
31 Ar 0.0361237 6.60484 2.20083
32 Ar -0.0165408 6.67989 6.74511
33 Ar -0.0246482 6.70868 11.2315
34 Ar -0.0314431 11.1211 2.22202
35 Ar 0.0135896 11.0244 6.71273
36 Ar 0.0575859 11.161 11.0262
37 Ar 4.52246 2.18768 2.13699
38 Ar 4.38287 2.2869 6.60478
39 Ar 4.51453 2.33308 11.1776
40 Ar 4.60923 6.78992 2.41214
41 Ar 4.36828 6.64534 6.73653
42 Ar 4.39691 6.68742 11.2778
43 Ar 4.53471 11.1411 2.31986
44 Ar 4.48827 11.1397 6.62993
45 Ar 4.16043 10.9381 11.0162
46 Ar 8.86148 2.12813 2.18029
47 Ar 8.90641 2.14301 6.67164
48 Ar 8.70186 2.25816 11.0207
49 Ar 9.04543 6.76503 2.2789
50 Ar 8.8823 6.73358 6.74361
51 Ar 8.87735 6.8619 11.2435
52 Ar 8.84193 11.1525 2.15079
53 Ar 8.72986 11.2114 6.63742
54 Ar 8.85359 10.879 11.1505
55 Ar 2.22433 -0.0825428 2.03801
56 Ar 2.25201 -0.00904197 6.52925
57 Ar 2.2448 0.13224 11.1236
58 Ar 2.28207 4.51517 2.32372
59 Ar 2.2892 4.58145 6.73098
60 Ar 2.12615 4.45565 11.255
61 Ar 2.38694 8.92805 2.42123
62 Ar 2.2198 8.87334 6.75208
63 Ar 2.04611 8.62849 11.2398
64 Ar 6.67284 0.0435272 2.1022
65 Ar 6.57702 -0.0908265 6.51453
66 Ar 6.71148 -0.15819 11.0985
67 Ar 6.69306 4.54055 2.15437
68 Ar 6.50597 4.51694 6.61729
69 Ar 6.74324 4.55926 11.1414
70 Ar 6.68728 8.89792 2.14205
71 Ar 6.67042 8.98557 6.78349
72 Ar 6.59641 8.94359 11.1415
73 Ar 10.9605 -0.09356 2.08347
74 Ar 11.2004 0.184796 6.65273
75 Ar 10.9785 -0.0458743 11.1406
76 Ar 11.0088 4.35953 2.17113
77 Ar 11.2113 4.42618 6.65159
78 Ar 10.979 4.44948 11.194
79 Ar 11.093 8.89737 2.18406
80 Ar 11.1091 9.1098 6.70315
81 Ar 11.087 8.93821 11.0307
82 Ar 2.18774 2.48332 -0.0660838
83 Ar 2.29461 2.03285 4.12978
84 Ar 2.47917 2.29034 8.9084
85 Ar 2.48438 6.62685 0.181441
86 Ar 2.34177 6.80179 4.45661
87 Ar 2.26752 6.49934 9.15307
88 Ar 2.10655 11.1395 -0.035076
89 Ar 2.22641 11.0596 4.45929
90 Ar 2.1087 11.1148 9.00136
91 Ar 6.66754 2.15048 -0.214652
92 Ar 6.83649 2.32769 4.48638
93 Ar 6.57977 2.20679 8.77022
94 Ar 6.63931 6.77474 0.00687679
95 Ar 6.88929 6.78133 4.39073
96 Ar 6.70433 6.76365 9.10591
97 Ar 6.62849 11.0704 -0.0239131
98 Ar 6.77047 11.1279 4.361
99 Ar 6.75374 11.1249 8.87062
100 Ar 11.112 2.04895 -0.0936962
101 Ar 11.1978 2.14185 4.48643
102 Ar 11.2617 2.24417 9.01052
103 Ar 11.1494 6.49961 0.151381
104 Ar 11.174 6.69897 4.5599
105 Ar 11.0686 6.70797 8.95509
106 Ar 11.1299 10.8306 -0.0845344
107 Ar 11.1312 11.2404 4.58089
108 Ar 11.1335 11.1832 8.89404
ITEM: TIMESTEP
96010
ITEM: NUMBER OF ATOMS
108
ITEM: BOX BOUNDS pp pp pp
0.0000000000000000e+00 1.3349999400000000e+01
0.0000000000000000e+00 1.3349999400000000e+01
0.0000000000000000e+00 1.3349999400000000e+01
ITEM: ATOMS id element xu yu zu
1 Ar 0.0765766 0.0514052 -0.110807
2 Ar -0.0368823 -0.0122366 4.47061
3 Ar 0.203948 0.119287 8.73396
4 Ar -0.0589583 4.48934 0.153657
5 Ar 0.307081 4.46925 4.5588
6 Ar 0.00470285 4.55902 8.99485
7 Ar -0.0447283 8.68289 0.0202426
8 Ar -0.0456888 8.82952 4.40107
9 Ar -0.0852796 8.88595 9.07935
10 Ar 4.35219 -0.0334441 -0.208336
11 Ar 4.56904 -0.0917012 4.33262
12 Ar 4.49796 -0.182514 8.94039
13 Ar 4.5536 4.38633 -0.0816677
14 Ar 4.39743 4.56218 4.40569
15 Ar 4.53624 4.53709 8.92449
16 Ar 4.19074 9.03354 -0.110428
17 Ar 4.41353 9.03223 4.67108
18 Ar 4.27326 8.80991 8.95766
19 Ar 8.89169 -0.242566 -0.136421
20 Ar 8.88669 -0.0529439 4.37396
21 Ar 8.89005 0.0759698 8.87794
22 Ar 8.74911 4.30616 0.0304911
23 Ar 8.94621 4.54523 4.4779
24 Ar 8.9426 4.44732 8.85788
25 Ar 8.91731 8.9308 -0.000776438
26 Ar 9.00371 8.93051 4.38905
27 Ar 9.04316 8.88174 9.00003
28 Ar -0.16 2.30566 2.10908
29 Ar -0.0898809 2.16793 6.59735
30 Ar -0.0744469 2.16132 11.1111
31 Ar 0.0443687 6.61136 2.19244
32 Ar -0.0176387 6.6765 6.75018
33 Ar -0.0191112 6.70839 11.223
34 Ar -0.0464209 11.1162 2.22013
35 Ar 0.0163229 11.0231 6.70669
36 Ar 0.0374854 11.1502 11.0328
37 Ar 4.52032 2.20319 2.13495
38 Ar 4.38975 2.27188 6.58499
39 Ar 4.49588 2.32331 11.166
40 Ar 4.62168 6.79792 2.40603
41 Ar 4.38666 6.65576 6.73395
42 Ar 4.39073 6.6733 11.2753
43 Ar 4.54072 11.1303 2.31225
44 Ar 4.4891 11.1512 6.62412
45 Ar 4.16585 10.9616 11.0222
46 Ar 8.85997 2.13269 2.18137
47 Ar 8.9074 2.15976 6.69172
48 Ar 8.70046 2.27116 11.0131
49 Ar 9.04491 6.76572 2.29765
50 Ar 8.87105 6.72413 6.76155
51 Ar 8.89214 6.86114 11.2709
52 Ar 8.8357 11.1579 2.14632
53 Ar 8.74082 11.2113 6.64172
54 Ar 8.85793 10.8864 11.166
55 Ar 2.2117 -0.0721509 2.0277
56 Ar 2.24841 -0.0132197 6.53183
57 Ar 2.2477 0.13094 11.1307
58 Ar 2.27654 4.49557 2.34824
59 Ar 2.27701 4.59972 6.71989
60 Ar 2.12893 4.45985 11.2627
61 Ar 2.39011 8.95248 2.42035
62 Ar 2.22935 8.86639 6.76182
63 Ar 2.05723 8.62004 11.2603
64 Ar 6.66745 0.0539089 2.09604
65 Ar 6.58659 -0.0798727 6.50141
66 Ar 6.73986 -0.15456 11.1045
67 Ar 6.71251 4.52409 2.13359
68 Ar 6.51855 4.50833 6.62456
69 Ar 6.76717 4.57501 11.1717
70 Ar 6.68791 8.90811 2.14584
71 Ar 6.68241 8.98899 6.79599
72 Ar 6.58405 8.95884 11.1654
73 Ar 10.9637 -0.0787087 2.06389
74 Ar 11.1718 0.184482 6.66684
75 Ar 10.9615 -0.048517 11.1333
76 Ar 11.0393 4.36649 2.16243
77 Ar 11.2003 4.42953 6.63204
78 Ar 11.0044 4.46657 11.1986
79 Ar 11.1045 8.9111 2.17801
80 Ar 11.1408 9.11004 6.70868
81 Ar 11.0997 8.92019 11.0249
82 Ar 2.1888 2.4884 -0.0880781
83 Ar 2.28504 2.02317 4.13829
84 Ar 2.46318 2.28202 8.91333
85 Ar 2.50145 6.62489 0.190652
86 Ar 2.34131 6.80868 4.45621
87 Ar 2.28818 6.50509 9.13067
88 Ar 2.10664 11.1386 -0.0403848
89 Ar 2.22905 11.0547 4.47572
90 Ar 2.09579 11.1049 9.01442
91 Ar 6.644 2.15662 -0.203574
92 Ar 6.8293 2.34138 4.48547
93 Ar 6.57306 2.19159 8.76543
94 Ar 6.64781 6.75897 0.0121011
95 Ar 6.86719 6.78931 4.3833
96 Ar 6.70843 6.78083 9.11551
97 Ar 6.63056 11.0691 -0.022282
98 Ar 6.77234 11.109 4.3512
99 Ar 6.75816 11.1255 8.88442
100 Ar 11.1292 2.05223 -0.0985944
101 Ar 11.1999 2.1559 4.48528
102 Ar 11.2421 2.25798 9.03261
103 Ar 11.1422 6.48778 0.14948
104 Ar 11.1701 6.6691 4.54961
105 Ar 11.0936 6.69283 8.93278
106 Ar 11.1163 10.8395 -0.097554
107 Ar 11.1233 11.261 4.58445
108 Ar 11.1265 11.1869 8.90216
ITEM: TIMESTEP
96020
ITEM: NUMBER OF ATOMS
108
ITEM: BOX BOUNDS pp pp pp
0.0000000000000000e+00 1.3349999400000000e+01
0.0000000000000000e+00 1.3349999400000000e+01
0.0000000000000000e+00 1.3349999400000000e+01
ITEM: ATOMS id element xu yu zu
1 Ar 0.0612623 0.0424736 -0.103823
2 Ar -0.0566678 -0.0175364 4.48447
3 Ar 0.207074 0.0948612 8.7234
4 Ar -0.0690049 4.46771 0.16414
5 Ar 0.28471 4.48633 4.55978
6 Ar 0.00965674 4.5529 8.98045
7 Ar -0.0303832 8.68526 0.00416101
8 Ar -0.0502037 8.82755 4.37323
9 Ar -0.0968512 8.88679 9.0601
10 Ar 4.35289 -0.0369006 -0.213156
11 Ar 4.59097 -0.0915958 4.33611
12 Ar 4.47711 -0.18561 8.93645
13 Ar 4.54005 4.41579 -0.0658746
14 Ar 4.40301 4.54445 4.38927
15 Ar 4.5356 4.53956 8.92743
16 Ar 4.19559 9.04714 -0.1138
17 Ar 4.40183 9.01504 4.65612
18 Ar 4.26559 8.78975 8.96675
19 Ar 8.87851 -0.251583 -0.13494
20 Ar 8.88414 -0.0739247 4.39217
21 Ar 8.89051 0.0682446 8.87926
22 Ar 8.73396 4.29778 0.0266713
23 Ar 8.93988 4.5474 4.45656
24 Ar 8.94487 4.46451 8.87216
25 Ar 8.91553 8.93958 2.83838e-05
26 Ar 8.99884 8.92259 4.37554
27 Ar 9.03865 8.87501 9.00655
28 Ar -0.160337 2.28993 2.10738
29 Ar -0.0554398 2.1578 6.58868
30 Ar -0.0718194 2.16304 11.1124
31 Ar 0.0527543 6.61886 2.18694
32 Ar -0.0181119 6.67465 6.75545
33 Ar -0.0163523 6.70404 11.2143
34 Ar -0.0615222 11.1112 2.21802
35 Ar 0.020105 11.0236 6.70056
36 Ar 0.0154814 11.1404 11.0421
37 Ar 4.51836 2.21922 2.13281
38 Ar 4.39666 2.25578 6.56397
39 Ar 4.4772 2.31227 11.1515
40 Ar 4.63282 6.80548 2.39788
41 Ar 4.40767 6.66828 6.73112
42 Ar 4.38662 6.6588 11.2711
43 Ar 4.54545 11.119 2.3018
44 Ar 4.4886 11.1629 6.62092
45 Ar 4.1744 10.987 11.0294
46 Ar 8.85893 2.1382 2.18226
47 Ar 8.90824 2.17837 6.71158
48 Ar 8.70174 2.28307 11.0056
49 Ar 9.04253 6.76458 2.31453
50 Ar 8.85999 6.71478 6.77896
51 Ar 8.90787 6.85714 11.2977
52 Ar 8.83058 11.1618 2.14263
53 Ar 8.7554 11.2104 6.64686
54 Ar 8.86256 10.8975 11.1797
55 Ar 2.19934 -0.061055 2.0189
56 Ar 2.24597 -0.0170781 6.53544
57 Ar 2.24989 0.129131 11.1363
58 Ar 2.27165 4.47526 2.37021
59 Ar 2.26422 4.61506 6.7095
60 Ar 2.13211 4.46499 11.2684
61 Ar 2.3909 8.97678 2.41559
62 Ar 2.23701 8.85953 6.7723
63 Ar 2.06987 8.61582 11.2791
64 Ar 6.66201 0.0638043 2.08981
65 Ar 6.59704 -0.0661549 6.49058
66 Ar 6.76653 -0.150279 11.1098
67 Ar 6.73144 4.50664 2.11501
68 Ar 6.53413 4.5004 6.63245
69 Ar 6.79014 4.59037 11.2003
70 Ar 6.68849 8.91903 2.15042
71 Ar 6.69444 8.98994 6.80762
72 Ar 6.57055 8.97394 11.189
73 Ar 10.9703 -0.063996 2.04547
74 Ar 11.1413 0.179815 6.68318
75 Ar 10.9467 -0.0520701 11.1247
76 Ar 11.0694 4.37311 2.1567
77 Ar 11.1885 4.43274 6.61342
78 Ar 11.0306 4.48369 11.2032
79 Ar 11.1173 8.92514 2.17363
80 Ar 11.1712 9.10678 6.71403
81 Ar 11.1145 8.90066 11.0222
82 Ar 2.19013 2.48889 -0.106447
83 Ar 2.27471 2.01504 4.14984
84 Ar 2.44451 2.27388 8.9176
85 Ar 2.51504 6.62224 0.200923
86 Ar 2.33881 6.81469 4.45656
87 Ar 2.3073 6.5131 9.10517
88 Ar 2.10621 11.1362 -0.0454266
89 Ar 2.23017 11.0521 4.49216
90 Ar 2.08419 11.0948 9.02385
91 Ar 6.62118 2.16158 -0.18941
92 Ar 6.81965 2.3542 4.48329
93 Ar 6.56634 2.17635 8.76141
94 Ar 6.65629 6.7432 0.0179133
95 Ar 6.84273 6.79696 4.37838
96 Ar 6.71217 6.7975 9.12216
97 Ar 6.63065 11.0682 -0.0206484
98 Ar 6.77339 11.0887 4.34177
99 Ar 6.76129 11.1254 8.89937
100 Ar 11.144 2.05798 -0.103369
101 Ar 11.1998 2.17216 4.48091
102 Ar 11.2203 2.27177 9.05279
103 Ar 11.1327 6.47902 0.144867
104 Ar 11.1667 6.63893 4.53845
105 Ar 11.1191 6.67633 8.90997
106 Ar 11.1052 10.8531 -0.109863
107 Ar 11.1152 11.2804 4.58574
108 Ar 11.1192 11.1925 8.90977
ITEM: TIMESTEP
96030
ITEM: NUMBER OF ATOMS
108
ITEM: BOX BOUNDS pp pp pp
0.0000000000000000e+00 1.3349999400000000e+01
0.0000000000000000e+00 1.3349999400000000e+01
0.0000000000000000e+00 1.3349999400000000e+01
ITEM: ATOMS id element xu yu zu
1 Ar 0.044076 0.0322318 -0.0959113
2 Ar -0.0751003 -0.0235542 4.4958
3 Ar 0.207834 0.0697389 8.71533
4 Ar -0.077401 4.44595 0.170939
5 Ar 0.258628 4.50261 4.55921
6 Ar 0.014437 4.54426 8.96542
7 Ar -0.015442 8.69044 -0.00998435
8 Ar -0.0544906 8.82651 4.34642
9 Ar -0.10597 8.88666 9.03762
10 Ar 4.35547 -0.0407082 -0.215463
11 Ar 4.61081 -0.0893057 4.33953
12 Ar 4.4557 -0.186478 8.93181
13 Ar 4.52661 4.446 -0.0477464
14 Ar 4.41049 4.52497 4.37373
15 Ar 4.53548 4.54097 8.93153
16 Ar 4.20464 9.05977 -0.113708
17 Ar 4.39377 8.99588 4.63962
18 Ar 4.26012 8.77102 8.97568
19 Ar 8.86502 -0.257183 -0.132329
20 Ar 8.88168 -0.0925815 4.4105
21 Ar 8.89074 0.0593979 8.88022
22 Ar 8.72271 4.29108 0.022614
23 Ar 8.93349 4.54797 4.43551
24 Ar 8.94592 4.48195 8.88622
25 Ar 8.91287 8.94618 0.00288535
26 Ar 8.99407 8.91599 4.36432
27 Ar 9.0314 8.86896 9.00988
28 Ar -0.158179 2.27145 2.10816
29 Ar -0.0169541 2.15112 6.58153
30 Ar -0.0674925 2.16621 11.1133
31 Ar 0.0613035 6.62725 2.18401
32 Ar -0.0179376 6.67453 6.76055
33 Ar -0.0160416 6.69568 11.2053
34 Ar -0.0764377 11.1066 2.2157
35 Ar 0.0249335 11.0261 6.69434
36 Ar -0.00806567 11.1316 11.0538
37 Ar 4.51634 2.23546 2.13068
38 Ar 4.40324 2.23902 6.54223
39 Ar 4.45907 2.30047 11.1347
40 Ar 4.64233 6.81238 2.38772
41 Ar 4.43118 6.68233 6.72787
42 Ar 4.3848 6.64419 11.2654
43 Ar 4.54874 11.1078 2.28882
44 Ar 4.48706 11.1743 6.62021
45 Ar 4.18592 11.014 11.0375
46 Ar 8.85856 2.14443 2.18304
47 Ar 8.90884 2.19876 6.73088
48 Ar 8.70548 2.29375 10.9987
49 Ar 9.03847 6.76171 2.32902
50 Ar 8.84924 6.70572 6.79532
51 Ar 8.92434 6.8501 11.3233
52 Ar 8.82682 11.1644 2.13984
53 Ar 8.7732 11.2085 6.65288
54 Ar 8.86751 10.9116 11.1911
55 Ar 2.18747 -0.0494717 2.01176
56 Ar 2.24487 -0.0206667 6.53994
57 Ar 2.2509 0.12668 11.1404
58 Ar 2.26713 4.45454 2.38921
59 Ar 2.25146 4.62721 6.69977
60 Ar 2.13548 4.47141 11.2716
61 Ar 2.38923 9.00055 2.4069
62 Ar 2.24264 8.85289 6.7833
63 Ar 2.08376 8.61571 11.2957
64 Ar 6.65658 0.0730663 2.0837
65 Ar 6.60843 -0.0501474 6.48231
66 Ar 6.79091 -0.14519 11.1142
67 Ar 6.74937 4.48853 2.09912
68 Ar 6.55234 4.49325 6.64092
69 Ar 6.81135 4.60512 11.2264
70 Ar 6.68913 8.93035 2.15545
71 Ar 6.70621 8.98865 6.81816
72 Ar 6.5562 8.98843 11.2119
73 Ar 10.9798 -0.0496582 2.02856
74 Ar 11.1097 0.171562 6.70149
75 Ar 10.9343 -0.0562194 11.1149
76 Ar 11.0984 4.37924 2.15415
77 Ar 11.1762 4.43544 6.59614
78 Ar 11.0572 4.50058 11.2077
79 Ar 11.1309 8.93913 2.17072
80 Ar 11.1998 9.09997 6.71885
81 Ar 11.1308 8.87988 11.0225
82 Ar 2.19177 2.48467 -0.120769
83 Ar 2.26369 2.00834 4.16434
84 Ar 2.42343 2.26621 8.92084
85 Ar 2.52484 6.61908 0.212394
86 Ar 2.33442 6.81966 4.45746
87 Ar 2.32426 6.52311 9.07716
88 Ar 2.10512 11.1326 -0.0501022
89 Ar 2.22977 11.0521 4.50833
90 Ar 2.0741 11.0843 9.02989
91 Ar 6.59917 2.16541 -0.1728
92 Ar 6.80792 2.36594 4.47982
93 Ar 6.55959 2.16123 8.75833
94 Ar 6.66469 6.72803 0.0244034
95 Ar 6.81635 6.80405 4.37623
96 Ar 6.71555 6.81341 9.12625
97 Ar 6.62869 11.068 -0.0189127
98 Ar 6.77356 11.0672 4.33315
99 Ar 6.763 11.1247 8.91518
100 Ar 11.156 2.06618 -0.108192
101 Ar 11.1974 2.19018 4.47371
102 Ar 11.1969 2.28537 9.07066
103 Ar 11.1214 6.47366 0.137871
104 Ar 11.1639 6.60918 4.52654
105 Ar 11.1446 6.65882 8.88698
106 Ar 11.0968 10.8711 -0.121294
107 Ar 11.107 11.298 4.58477
108 Ar 11.1117 11.1995 8.91673
ITEM: TIMESTEP
96040
ITEM: NUMBER OF ATOMS
108
ITEM: BOX BOUNDS pp pp pp
0.0000000000000000e+00 1.3349999400000000e+01
0.0000000000000000e+00 1.3349999400000000e+01
0.0000000000000000e+00 1.3349999400000000e+01
ITEM: ATOMS id element xu yu zu
1 Ar 0.0252685 0.0207224 -0.0874626
2 Ar -0.0920344 -0.0301726 4.50455
3 Ar 0.205901 0.0443653 8.70992
4 Ar -0.0837427 4.42455 0.173928
5 Ar 0.229148 4.5179 4.55703
6 Ar 0.0192169 4.53307 8.94989
7 Ar -0.000366667 8.69827 -0.0219301
8 Ar -0.0585528 8.82637 4.32118
9 Ar -0.112284 8.88565 9.01254
10 Ar 4.35992 -0.0447368 -0.21511
11 Ar 4.62821 -0.0850488 4.34249
12 Ar 4.4341 -0.185119 8.92648
13 Ar 4.51353 4.47609 -0.0276719
14 Ar 4.41987 4.5043 4.35943
15 Ar 4.53602 4.54112 8.93655
16 Ar 4.21776 9.07108 -0.110154
17 Ar 4.38945 8.97542 4.6221
18 Ar 4.25714 8.75445 8.98464
19 Ar 8.85161 -0.258917 -0.128382
20 Ar 8.87919 -0.108295 4.42841
21 Ar 8.8905 0.0496413 8.88079
22 Ar 8.71629 4.28592 0.018488
23 Ar 8.9269 4.54691 4.41497
24 Ar 8.94573 4.49956 8.90016
25 Ar 8.90946 8.95054 0.00787033
26 Ar 8.98977 8.91073 4.35575
27 Ar 9.02194 8.8636 9.01039
28 Ar -0.153426 2.2503 2.11156
29 Ar 0.0244704 2.14777 6.57599
30 Ar -0.061546 2.17057 11.1136
31 Ar 0.0699959 6.63636 2.18327
32 Ar -0.0170807 6.67621 6.76508
33 Ar -0.0177084 6.68361 11.1961
34 Ar -0.0908407 11.1024 2.21316
35 Ar 0.0307199 11.0303 6.68798
36 Ar -0.0327131 11.1239 11.0677
37 Ar 4.51401 2.25154 2.12867
38 Ar 4.40921 2.22198 6.52027
39 Ar 4.44204 2.28839 11.1161
40 Ar 4.64995 6.81839 2.37565
41 Ar 4.45702 6.69732 6.72402
42 Ar 4.38535 6.62974 11.2584
43 Ar 4.55046 11.0973 2.2737
44 Ar 4.48477 11.1849 6.62182
45 Ar 4.20021 11.0421 11.0461
46 Ar 8.85906 2.15111 2.18383
47 Ar 8.90912 2.22082 6.74932
48 Ar 8.71143 2.30311 10.9926
49 Ar 9.03289 6.75727 2.34066
50 Ar 8.83897 6.69709 6.81013
51 Ar 8.94129 6.84032 11.3473
52 Ar 8.82462 11.1658 2.13804
53 Ar 8.79371 11.2054 6.65984
54 Ar 8.87278 10.9279 11.1997
55 Ar 2.17632 -0.0376235 2.0064
56 Ar 2.24521 -0.0240392 6.54521
57 Ar 2.25033 0.12344 11.1429
58 Ar 2.26272 4.43373 2.40498
59 Ar 2.23933 4.63604 6.69061
60 Ar 2.1389 4.47929 11.2721
61 Ar 2.38504 9.02343 2.39437
62 Ar 2.24622 8.84661 6.79453
63 Ar 2.0986 8.61943 11.3093
64 Ar 6.65126 0.0815348 2.07792
65 Ar 6.62083 -0.0323864 6.47683
66 Ar 6.81247 -0.139125 11.1175
67 Ar 6.76583 4.47011 2.08637
68 Ar 6.57278 4.48696 6.64993
69 Ar 6.83004 4.619 11.2493
70 Ar 6.68991 8.94167 2.16064
71 Ar 6.71749 8.98542 6.82741
72 Ar 6.54138 9.00186 11.2338
73 Ar 10.9918 -0.035912 2.01349
74 Ar 11.0777 0.160556 6.72144
75 Ar 10.9245 -0.0605894 11.1045
76 Ar 11.1258 4.38481 2.15489
77 Ar 11.1635 4.43731 6.58059
78 Ar 11.084 4.51698 11.2121
79 Ar 11.1449 8.95271 2.16903
80 Ar 11.226 9.08969 6.72278
81 Ar 11.1483 8.85814 11.0258
82 Ar 2.19377 2.47576 -0.130793
83 Ar 2.25213 2.00297 4.18161
84 Ar 2.40023 2.25924 8.92271
85 Ar 2.53056 6.61568 0.225066
86 Ar 2.32828 6.82344 4.45869
87 Ar 2.33849 6.53479 9.04724
88 Ar 2.10329 11.128 -0.0543329
89 Ar 2.22793 11.0546 4.52389
90 Ar 2.06572 11.0731 9.03289
91 Ar 6.57809 2.16819 -0.15446
92 Ar 6.79455 2.37636 4.47508
93 Ar 6.55276 2.14641 8.75637
94 Ar 6.67295 6.71405 0.031656
95 Ar 6.78854 6.81036 4.37704
96 Ar 6.71851 6.82832 9.12819
97 Ar 6.62473 11.0685 -0.0169844
98 Ar 6.77279 11.045 4.32579
99 Ar 6.76319 11.1234 8.93153
100 Ar 11.1649 2.07675 -0.113215
101 Ar 11.1928 2.20946 4.46419
102 Ar 11.1724 2.2986 9.08589
103 Ar 11.1085 6.47197 0.128957
104 Ar 11.1618 6.58056 4.51403
105 Ar 11.1694 6.64065 8.86415
106 Ar 11.0912 10.8931 -0.131656
107 Ar 11.0988 11.3132 4.58158
108 Ar 11.104 11.2077 8.92289
ITEM: TIMESTEP
96050
ITEM: NUMBER OF ATOMS
108
ITEM: BOX BOUNDS pp pp pp
0.0000000000000000e+00 1.3349999400000000e+01
0.0000000000000000e+00 1.3349999400000000e+01
0.0000000000000000e+00 1.3349999400000000e+01
ITEM: ATOMS id element xu yu zu
1 Ar 0.00512633 0.00804228 -0.0788773
2 Ar -0.107377 -0.037195 4.51072
3 Ar 0.201016 0.0191797 8.70731
4 Ar -0.0876915 4.40396 0.173114
5 Ar 0.196705 4.53199 4.55321
6 Ar 0.0241412 4.51932 8.93398
7 Ar 0.0144181 8.7085 -0.0314898
8 Ar -0.0623638 8.82709 4.29804
9 Ar -0.115561 8.8839 8.98558
10 Ar 4.36611 -0.0488273 -0.212011
11 Ar 4.64291 -0.0791182 4.3446
12 Ar 4.41263 -0.181553 8.92046
13 Ar 4.50107 4.50518 -0.00602979
14 Ar 4.43107 4.48299 4.34669
15 Ar 4.53728 4.53985 8.9422
16 Ar 4.23473 9.0807 -0.103232
17 Ar 4.38882 8.95435 4.60399
18 Ar 4.2569 8.74074 8.9938
19 Ar 8.83864 -0.256435 -0.122913
20 Ar 8.87654 -0.120548 4.44539
21 Ar 8.88955 0.0392174 8.88096
22 Ar 8.71545 4.28212 0.0144748
23 Ar 8.91997 4.54424 4.39521
24 Ar 8.94429 4.51732 8.9141
25 Ar 8.90547 8.95271 0.0149323
26 Ar 8.98621 8.90676 4.35009
27 Ar 9.01087 8.85898 9.00859
28 Ar -0.146064 2.22668 2.11758
29 Ar 0.0677153 2.1476 6.57211
30 Ar -0.054122 2.17584 11.1131
31 Ar 0.0787683 6.64597 2.18425
32 Ar -0.0154877 6.67969 6.76862
33 Ar -0.0207734 6.66827 11.1867
34 Ar -0.104396 11.0992 2.2104
35 Ar 0.0372834 11.0361 6.68144
36 Ar -0.0579509 11.1172 11.0834
37 Ar 4.51113 2.26711 2.1269
38 Ar 4.41435 2.20507 6.49865
39 Ar 4.42659 2.27639 11.0963
40 Ar 4.65543 6.82329 2.36178
41 Ar 4.48492 6.71266 6.71948
42 Ar 4.38827 6.61572 11.2502
43 Ar 4.5505 11.0879 2.25692
44 Ar 4.48207 11.1943 6.62554
45 Ar 4.21703 11.0709 11.0549
46 Ar 8.86059 2.15796 2.1847
47 Ar 8.90905 2.24437 6.76663
48 Ar 8.71928 2.31107 10.9876
49 Ar 9.02592 6.75142 2.34914
50 Ar 8.82937 6.68903 6.82294
51 Ar 8.9584 6.82815 11.3691
52 Ar 8.82418 11.1663 2.13728
53 Ar 8.81638 11.2008 6.66776
54 Ar 8.8783 10.9457 11.2053
55 Ar 2.16608 -0.0257407 2.00289
56 Ar 2.24707 -0.0272543 6.55116
57 Ar 2.24785 0.119262 11.1439
58 Ar 2.25811 4.41312 2.41735
59 Ar 2.22838 4.64145 6.68187
60 Ar 2.1423 4.48864 11.2698
61 Ar 2.37829 9.04512 2.37821
62 Ar 2.24781 8.84084 6.80564
63 Ar 2.11414 8.62662 11.3196
64 Ar 6.64611 0.0890434 2.0727
65 Ar 6.63426 -0.0134437 6.47431
66 Ar 6.83071 -0.131916 11.1197
67 Ar 6.7804 4.45173 2.0771
68 Ar 6.59499 4.48155 6.65945
69 Ar 6.84553 4.63175 11.2685
70 Ar 6.69091 8.95259 2.16568
71 Ar 6.72806 8.98064 6.83521
72 Ar 6.52648 9.01379 11.2544
73 Ar 11.0057 -0.0229458 2.00057
74 Ar 11.0463 0.147633 6.74256
75 Ar 10.9173 -0.0647569 11.0938
76 Ar 11.1512 4.38976 2.1589
77 Ar 11.1506 4.43811 6.56713
78 Ar 11.1105 4.53256 11.2161
79 Ar 11.1588 8.96553 2.16829
80 Ar 11.2492 9.07612 6.72549
81 Ar 11.1663 8.83575 11.032
82 Ar 2.1962 2.46235 -0.136447
83 Ar 2.24015 1.99882 4.20142
84 Ar 2.37518 2.25317 8.92295
85 Ar 2.53194 6.6124 0.238797
86 Ar 2.32057 6.82591 4.46006
87 Ar 2.34951 6.54775 9.01601
88 Ar 2.10067 11.1226 -0.0580684
89 Ar 2.22486 11.0594 4.5385
90 Ar 2.0592 11.0613 9.03329
91 Ar 6.55804 2.17008 -0.135148
92 Ar 6.78 2.38527 4.4691
93 Ar 6.54585 2.13204 8.75564
94 Ar 6.68104 6.70177 0.0397388
95 Ar 6.75984 6.81567 4.38091
96 Ar 6.72104 6.842 9.1284
97 Ar 6.61894 11.0702 -0.0147904
98 Ar 6.771 11.0224 4.32015
99 Ar 6.76177 11.1216 8.94807
100 Ar 11.1703 2.08955 -0.118561
101 Ar 11.1862 2.22941 4.45289
102 Ar 11.1474 2.31134 9.09825
103 Ar 11.0945 6.47404 0.118717
104 Ar 11.1605 6.55378 4.50102
105 Ar 11.1929 6.62218 8.84183
106 Ar 11.0883 10.9185 -0.14073
107 Ar 11.0907 11.3255 4.57623
108 Ar 11.0964 11.2165 8.92814
ITEM: TIMESTEP
96060
ITEM: NUMBER OF ATOMS
108
ITEM: BOX BOUNDS pp pp pp
0.0000000000000000e+00 1.3349999400000000e+01
0.0000000000000000e+00 1.3349999400000000e+01
0.0000000000000000e+00 1.3349999400000000e+01
ITEM: ATOMS id element xu yu zu
1 Ar -0.0160287 -0.00564728 -0.0705532
2 Ar -0.12108 -0.0443604 4.51444
3 Ar 0.193009 -0.0053939 8.70754
4 Ar -0.0889914 4.3846 0.168651
5 Ar 0.161857 4.54468 4.54775
6 Ar 0.0293143 4.50306 8.91777
7 Ar 0.0285372 8.72078 -0.0385612
8 Ar -0.0658667 8.82868 4.27752
9 Ar -0.115691 8.88156 8.95755
10 Ar 4.37387 -0.0527955 -0.20615
11 Ar 4.65473 -0.0718671 4.34556
12 Ar 4.39159 -0.17582 8.91375
13 Ar 4.48949 4.53247 0.0168075
14 Ar 4.44394 4.46166 4.33579
15 Ar 4.53929 4.53707 8.94818
16 Ar 4.25515 9.08828 -0.0931295
17 Ar 4.39163 8.93339 4.58568
18 Ar 4.25961 8.73049 9.00327
19 Ar 8.82646 -0.249495 -0.115776
20 Ar 8.8736 -0.128944 4.46096
21 Ar 8.88758 0.0283925 8.88076
22 Ar 8.72074 4.27948 0.010758
23 Ar 8.91259 4.53997 4.37649
24 Ar 8.94161 4.53516 8.92819
25 Ar 8.9011 8.95289 0.0238989
26 Ar 8.98366 8.90397 4.34754
27 Ar 8.99884 8.85512 9.00499
28 Ar -0.13617 2.20096 2.12613
29 Ar 0.111681 2.15039 6.56988
30 Ar -0.045418 2.18178 11.1117
31 Ar 0.087518 6.65583 2.18648
32 Ar -0.0130863 6.68486 6.77075
33 Ar -0.0245873 6.65029 11.1772
34 Ar -0.116769 11.0971 2.20745
35 Ar 0.0443548 11.0434 6.67471
36 Ar -0.0832205 11.1114 11.1002
37 Ar 4.50746 2.28179 2.1255
38 Ar 4.41846 2.18869 6.47789
39 Ar 4.41309 2.2648 11.0757
40 Ar 4.65861 6.82692 2.3463
41 Ar 4.51451 6.72778 6.71421
42 Ar 4.39345 6.6024 11.2411
43 Ar 4.54879 11.0802 2.239
44 Ar 4.47928 11.202 6.63112
45 Ar 4.23606 11.0999 11.0636
46 Ar 8.86328 2.16467 2.18569
47 Ar 8.90861 2.26914 6.78257
48 Ar 8.72867 2.31759 10.984
49 Ar 9.01767 6.74438 2.35424
50 Ar 8.82064 6.68166 6.8333
51 Ar 8.9753 6.814 11.3881
52 Ar 8.82564 11.1661 2.13762
53 Ar 8.84057 11.1946 6.67663
54 Ar 8.88402 10.9641 11.2078
55 Ar 2.15697 -0.0140662 2.00127
56 Ar 2.25044 -0.0303757 6.55774
57 Ar 2.2432 0.114003 11.1437
58 Ar 2.25305 4.393 2.42629
59 Ar 2.21912 4.64344 6.67337
60 Ar 2.14565 4.49933 11.2649
61 Ar 2.369 9.06534 2.35881
62 Ar 2.24759 8.83573 6.81624
63 Ar 2.13011 8.63682 11.3262
64 Ar 6.64122 0.0954273 2.06832
65 Ar 6.64869 0.00609749 6.47484
66 Ar 6.84524 -0.123408 11.1206
67 Ar 6.79273 4.43376 2.07152
68 Ar 6.6185 4.47702 6.66941
69 Ar 6.85725 4.64307 11.2835
70 Ar 6.6922 8.96267 2.17035
71 Ar 6.73776 8.97473 6.8414
72 Ar 6.51198 9.02383 11.2732
73 Ar 11.0209 -0.0109121 1.99007
74 Ar 11.0161 0.133599 6.76435
75 Ar 10.9127 -0.0682675 11.0831
76 Ar 11.1742 4.39411 2.166
77 Ar 11.1376 4.43764 6.55611
78 Ar 11.1365 4.54698 11.2195
79 Ar 11.1719 8.97724 2.1682
80 Ar 11.2691 9.05953 6.72663
81 Ar 11.1843 8.81304 11.0406
82 Ar 2.19917 2.44478 -0.137844
83 Ar 2.22794 1.99582 4.22346
84 Ar 2.3486 2.24814 8.92139
85 Ar 2.52876 6.60966 0.253316
86 Ar 2.3115 6.82694 4.46141
87 Ar 2.35697 6.5616 8.98407
88 Ar 2.09733 11.1169 -0.0612931
89 Ar 2.22078 11.0663 4.5518
90 Ar 2.05468 11.0487 9.0316
91 Ar 6.53914 2.17131 -0.115629
92 Ar 6.76472 2.39249 4.46193
93 Ar 6.53886 2.11829 8.75627
94 Ar 6.68897 6.69163 0.0486888
95 Ar 6.73084 6.81982 4.3878
96 Ar 6.72308 6.85424 9.12731
97 Ar 6.6116 11.0732 -0.0122822
98 Ar 6.76813 11 4.31666
99 Ar 6.75866 11.1193 8.96444
100 Ar 11.1721 2.10439 -0.124303
101 Ar 11.1778 2.24945 4.44039
102 Ar 11.1224 2.32344 9.1076
103 Ar 11.0802 6.47988 0.107847
104 Ar 11.16 6.52954 4.48762
105 Ar 11.2148 6.60374 8.82037
106 Ar 11.0881 10.9467 -0.148284
107 Ar 11.0829 11.3344 4.56882
108 Ar 11.089 11.2251 8.93239
ITEM: TIMESTEP
96070
ITEM: NUMBER OF ATOMS
108
ITEM: BOX BOUNDS pp pp pp
0.0000000000000000e+00 1.3349999400000000e+01
0.0000000000000000e+00 1.3349999400000000e+01
0.0000000000000000e+00 1.3349999400000000e+01
ITEM: ATOMS id element xu yu zu
1 Ar -0.0378375 -0.020113 -0.0628736
2 Ar -0.133131 -0.051364 4.51588
3 Ar 0.181801 -0.0289555 8.71059
4 Ar -0.0874801 4.3668 0.160831
5 Ar 0.12528 4.55575 4.54071
6 Ar 0.0347895 4.4844 8.90133
7 Ar 0.0416722 8.73472 -0.0431271
8 Ar -0.0689777 8.83113 4.26009
9 Ar -0.112687 8.87881 8.92933
10 Ar 4.3829 -0.0564383 -0.197576
11 Ar 4.66357 -0.063691 4.34515
12 Ar 4.37123 -0.167985 8.90637
13 Ar 4.47899 4.55724 0.0404659
14 Ar 4.45822 4.44091 4.32691
15 Ar 4.542 4.53276 8.95414
16 Ar 4.27849 9.09348 -0.0801195
17 Ar 4.39747 8.91325 4.56743
18 Ar 4.26541 8.72419 9.01309
19 Ar 8.81537 -0.23798 -0.106899
20 Ar 8.87025 -0.133223 4.47474
21 Ar 8.88431 0.0174459 8.88026
22 Ar 8.73242 4.27782 0.00750933
23 Ar 8.90464 4.5342 4.35909
24 Ar 8.93774 4.55303 8.94256
25 Ar 8.89659 8.95132 0.0344912
26 Ar 8.9823 8.90218 4.34816
27 Ar 8.98648 8.85206 9.00017
28 Ar -0.123909 2.17358 2.13701
29 Ar 0.155299 2.1559 6.56925
30 Ar -0.0356753 2.18812 11.1094
31 Ar 0.0961048 6.66568 2.18949
32 Ar -0.00979059 6.69148 6.77105
33 Ar -0.0284688 6.63038 11.1676
34 Ar -0.127639 11.0966 2.20433
35 Ar 0.0515894 11.052 6.66776
36 Ar -0.107936 11.1064 11.1176
37 Ar 4.50279 2.2952 2.12457
38 Ar 4.42145 2.17322 6.45853
39 Ar 4.40181 2.25383 11.055
40 Ar 4.65938 6.82916 2.32943
41 Ar 4.54535 6.74214 6.70828
42 Ar 4.40067 6.59003 11.2314
43 Ar 4.54528 11.0747 2.22052
44 Ar 4.4767 11.2077 6.6383
45 Ar 4.25696 11.1287 11.0719
46 Ar 8.86723 2.17095 2.18683
47 Ar 8.9078 2.29481 6.79697
48 Ar 8.73922 2.32264 10.9818
49 Ar 9.00824 6.73638 2.35588
50 Ar 8.813 6.6751 6.84087
51 Ar 8.99156 6.7983 11.4038
52 Ar 8.82905 11.1654 2.13907
53 Ar 8.86568 11.1864 6.68638
54 Ar 8.88983 10.9825 11.2072
55 Ar 2.14915 -0.00285958 2.00156
56 Ar 2.25525 -0.0334721 6.56492
57 Ar 2.23626 0.107535 11.1423
58 Ar 2.24727 4.37361 2.4319
59 Ar 2.21194 4.64205 6.66488
60 Ar 2.149 4.51107 11.2574
61 Ar 2.35724 9.08386 2.33663
62 Ar 2.24582 8.83142 6.82589
63 Ar 2.14633 8.64956 11.329
64 Ar 6.6367 0.100532 2.06505
65 Ar 6.66403 0.0256647 6.47843
66 Ar 6.85573 -0.113471 11.1204
67 Ar 6.80258 4.41655 2.0697
68 Ar 6.64279 4.47332 6.67978
69 Ar 6.86479 4.65269 11.2939
70 Ar 6.69382 8.97152 2.17442
71 Ar 6.74646 8.96815 6.84586
72 Ar 6.49836 9.03163 11.2899
73 Ar 11.037 7.97846e-05 1.98222
74 Ar 10.988 0.119203 6.78623
75 Ar 10.911 -0.0706559 11.0728
76 Ar 11.1947 4.39791 2.17583
77 Ar 11.1248 4.43582 6.54779
78 Ar 11.1617 4.55989 11.2222
79 Ar 11.1837 8.98751 2.16846
80 Ar 11.2852 9.0403 6.72593
81 Ar 11.2019 8.79033 11.0514
82 Ar 2.20275 2.42351 -0.13526
83 Ar 2.21571 1.99392 4.24736
84 Ar 2.32085 2.24425 8.91794
85 Ar 2.52087 6.60785 0.26824
86 Ar 2.30131 6.82649 4.46257
87 Ar 2.36067 6.57589 8.95197
88 Ar 2.09337 11.111 -0.0640301
89 Ar 2.21603 11.075 4.5634
90 Ar 2.05225 11.0354 9.02833
91 Ar 6.52156 2.17216 -0.0966468
92 Ar 6.74919 2.39784 4.45366
93 Ar 6.53185 2.10533 8.75832
94 Ar 6.69674 6.68395 0.0584971
95 Ar 6.70216 6.82263 4.39756
96 Ar 6.7246 6.86481 9.1253
97 Ar 6.60313 11.0776 -0.00944296
98 Ar 6.76415 10.9782 4.31569
99 Ar 6.75383 11.1167 8.98027
100 Ar 11.1703 2.12103 -0.130458
101 Ar 11.1678 2.26895 4.42724
102 Ar 11.098 2.33481 9.11382
103 Ar 11.066 6.48936 0.0971093
104 Ar 11.16 6.50849 4.47398
105 Ar 11.2344 6.58565 8.80015
106 Ar 11.09 10.977 -0.15407
107 Ar 11.0755 11.3396 4.55948
108 Ar 11.082 11.2331 8.93557
ITEM: TIMESTEP
96080
ITEM: NUMBER OF ATOMS
108
ITEM: BOX BOUNDS pp pp pp
0.0000000000000000e+00 1.3349999400000000e+01
0.0000000000000000e+00 1.3349999400000000e+01
0.0000000000000000e+00 1.3349999400000000e+01
ITEM: ATOMS id element xu yu zu
1 Ar -0.0599015 -0.0350437 -0.0561951
2 Ar -0.14355 -0.0578837 4.51529
3 Ar 0.167415 -0.0511393 8.71637
4 Ar -0.0830917 4.35083 0.150076
5 Ar 0.0877514 4.56497 4.53221
6 Ar 0.0405614 4.46354 8.88472
7 Ar 0.0535639 8.74989 -0.0452524
8 Ar -0.0715938 8.83449 4.2462
9 Ar -0.106683 8.87583 8.90183
10 Ar 4.39283 -0.0595425 -0.186405
11 Ar 4.6694 -0.0550083 4.34325
12 Ar 4.35177 -0.158141 8.89838
13 Ar 4.46975 4.57893 0.0645597
14 Ar 4.47357 4.42136 4.3202
15 Ar 4.54533 4.52698 8.95974
16 Ar 4.30412 9.096 -0.0645531
17 Ar 4.4058 8.89456 4.54944
18 Ar 4.27434 8.72218 9.02321
19 Ar 8.80562 -0.221903 -0.096304
20 Ar 8.86642 -0.133262 4.48642
21 Ar 8.87945 0.00665753 8.87956
22 Ar 8.75044 4.27696 0.00487339
23 Ar 8.89609 4.52703 4.34328
24 Ar 8.93273 4.57087 8.95733
25 Ar 8.89217 8.94832 0.0463435
26 Ar 8.98227 8.90113 4.35192
27 Ar 8.97444 8.84983 8.99465
28 Ar -0.109536 2.14513 2.14994
29 Ar 0.197534 2.16384 6.57014
30 Ar -0.0251669 2.19464 11.106
31 Ar 0.104354 6.67527 2.19286
32 Ar -0.00551357 6.69924 6.76911
33 Ar -0.0317389 6.60933 11.158
34 Ar -0.136715 11.0977 2.20111
35 Ar 0.0585883 11.0615 6.66061
36 Ar -0.131508 11.1022 11.1349
37 Ar 4.49694 2.30696 2.12422