ITEM: TIMESTEP
22000
ITEM: NUMBER OF ATOMS
108
ITEM: BOX BOUNDS pp pp pp
0.0000000000000000e+00 1.3349999400000000e+01
0.0000000000000000e+00 1.3349999400000000e+01
0.0000000000000000e+00 1.3349999400000000e+01
ITEM: ATOMS id element xu yu zu
1 Ar 0.00594189 0.198812 0.00973408
2 Ar -0.122963 0.0676253 4.37715
3 Ar -0.211876 0.0507865 8.97381
4 Ar -0.0154647 4.48673 0.141898
5 Ar -0.0808838 4.3734 4.69554
6 Ar -0.121188 4.51344 8.84374
7 Ar 0.0738498 8.81872 -0.18647
8 Ar 0.0451908 8.91669 4.5119
9 Ar -0.0129194 8.8876 9.13215
10 Ar 4.51884 0.0216642 0.163867
11 Ar 4.50377 -0.00196845 4.13383
12 Ar 4.44284 -0.00255087 8.83566
13 Ar 4.51406 4.46085 -0.27879
14 Ar 4.43243 4.45207 4.38448
15 Ar 4.47523 4.36079 9.07968
16 Ar 4.50279 9.02751 -0.159115
17 Ar 4.49202 8.78012 4.3743
18 Ar 4.73611 8.91975 8.80878
19 Ar 8.93336 -0.0601477 0.141846
20 Ar 8.97983 -0.0942343 4.61036
21 Ar 8.87619 -0.150777 8.75663
22 Ar 8.99353 4.43461 0.0021849
23 Ar 8.9127 4.36499 4.67491
24 Ar 8.95594 4.60686 8.88788
25 Ar 9.04466 8.96081 0.015548
26 Ar 8.9899 8.71232 4.43557
27 Ar 8.86004 8.91423 8.91258
28 Ar 0.0318044 2.28463 2.29418
29 Ar 0.0437014 2.30967 6.89956
30 Ar -0.0966856 2.30291 11.1024
31 Ar 0.00282257 6.59389 2.30996
32 Ar 0.0268172 6.60309 6.69587
33 Ar 0.18337 6.55716 11.1187
34 Ar 0.146176 11.0083 2.15017
35 Ar 0.0825086 11.1449 6.59742
36 Ar -0.167861 11.3043 11.1253
37 Ar 4.51963 2.2704 2.09764
38 Ar 4.34347 2.14144 6.48806
39 Ar 4.54308 2.15538 11.0713
40 Ar 4.43396 6.53188 2.1484
41 Ar 4.41825 6.78336 6.64587
42 Ar 4.41527 6.75473 11.0864
43 Ar 4.36896 11.0725 2.12543
44 Ar 4.34309 11.1951 6.68093
45 Ar 4.44965 11.2701 11.095
46 Ar 8.97055 2.14636 2.42633
47 Ar 8.7787 2.2187 6.84398
48 Ar 8.71664 2.22331 10.9628
49 Ar 8.88939 6.68832 2.03859
50 Ar 8.85208 6.71188 6.69773
51 Ar 8.86602 6.68954 11.1017
52 Ar 8.77341 11.0372 2.14751
53 Ar 8.88493 10.8207 6.57802
54 Ar 8.90178 11.162 11.1853
55 Ar 2.07088 -0.0650207 2.37568
56 Ar 2.24839 0.08497 6.42622
57 Ar 2.16409 -0.0897731 10.996
58 Ar 2.18951 4.43532 2.0492
59 Ar 2.38688 4.34133 6.84947
60 Ar 2.22275 4.2843 11.0895
61 Ar 2.26794 8.82552 2.06624
62 Ar 2.19657 8.96898 6.85481
63 Ar 2.38366 8.87978 11.05
64 Ar 6.84811 -0.0640452 2.27873
65 Ar 6.71033 -0.0303787 6.63397
66 Ar 6.73922 0.0688087 11.265
67 Ar 6.77336 4.54883 2.15178
68 Ar 6.562 4.62826 6.71828
69 Ar 6.68844 4.44889 11.2332
70 Ar 6.51967 8.82431 2.13787
71 Ar 6.55259 8.78075 6.49138
72 Ar 6.74501 8.86516 11.16
73 Ar 11.0918 -0.0189758 2.42252
74 Ar 11.0976 -0.174994 6.75698
75 Ar 11.062 0.198509 11.2701
76 Ar 11.2073 4.65333 2.43819
77 Ar 10.9758 4.41938 6.81341
78 Ar 11.2087 4.53278 11.0998
79 Ar 11.1184 8.8526 2.23277
80 Ar 11.3477 8.87961 6.76313
81 Ar 10.9706 8.93072 11.087
82 Ar 2.32935 2.13697 -0.121958
83 Ar 2.15706 2.28822 4.32332
84 Ar 2.12805 2.09669 9.1026
85 Ar 2.3349 6.70311 -0.0762554
86 Ar 2.1098 6.54476 4.51669
87 Ar 2.35429 6.77637 8.77344
88 Ar 2.11731 11.2544 0.00803637
89 Ar 2.33384 10.9227 4.38284
90 Ar 2.15086 11.1857 8.98786
91 Ar 6.74974 2.20868 0.0951249
92 Ar 6.5782 2.29131 4.47799
93 Ar 6.59861 2.16904 8.78986
94 Ar 6.65352 6.79262 -0.0548414
95 Ar 6.78652 6.67517 4.35613
96 Ar 6.67517 6.70914 8.92276
97 Ar 6.51262 11.2769 -0.0920437
98 Ar 6.59563 11.1323 4.44793
99 Ar 6.67555 11.1636 8.70692
100 Ar 11.0313 2.51251 0.104651
101 Ar 11.0461 2.24884 4.73146
102 Ar 11.03 2.31818 8.91014
103 Ar 11.2476 6.64722 -0.225428
104 Ar 11.2003 6.74715 4.69435
105 Ar 11.0951 6.74361 8.90392
106 Ar 11.1717 11.1851 0.180335
107 Ar 11.1606 10.9591 4.28864
108 Ar 11.1316 11.0493 8.91033
ITEM: TIMESTEP
22010
ITEM: NUMBER OF ATOMS
108
ITEM: BOX BOUNDS pp pp pp
0.0000000000000000e+00 1.3349999400000000e+01
0.0000000000000000e+00 1.3349999400000000e+01
0.0000000000000000e+00 1.3349999400000000e+01
ITEM: ATOMS id element xu yu zu
1 Ar -0.0238221 0.194555 0.00103172
2 Ar -0.130061 0.0669616 4.38808
3 Ar -0.215468 0.0538963 8.9809
4 Ar -0.0048227 4.48166 0.149368
5 Ar -0.0798086 4.37218 4.70527
6 Ar -0.128215 4.51063 8.85034
7 Ar 0.0718804 8.81188 -0.202541
8 Ar 0.0311576 8.89412 4.5006
9 Ar -0.0133676 8.8913 9.13381
10 Ar 4.52493 0.0310145 0.175506
11 Ar 4.51812 0.0199456 4.13672
12 Ar 4.43669 0.0123315 8.84028
13 Ar 4.54608 4.46589 -0.266734
14 Ar 4.42268 4.45542 4.3918
15 Ar 4.45932 4.35637 9.06933
16 Ar 4.50277 9.03558 -0.151207
17 Ar 4.49154 8.79587 4.362
18 Ar 4.74874 8.93785 8.81131
19 Ar 8.94476 -0.0634215 0.155007
20 Ar 8.99469 -0.116041 4.61843
21 Ar 8.87194 -0.124756 8.76033
22 Ar 8.98159 4.43152 -0.0176447
23 Ar 8.91435 4.35624 4.68499
24 Ar 8.93818 4.58776 8.86902
25 Ar 9.06122 8.97795 0.0141108
26 Ar 8.98402 8.70548 4.42425
27 Ar 8.85136 8.9198 8.91655
28 Ar 0.00210649 2.26683 2.29541
29 Ar 0.0254015 2.30851 6.91464
30 Ar -0.0935837 2.30124 11.0919
31 Ar -0.000120194 6.60066 2.33488
32 Ar 0.0394206 6.60421 6.67585
33 Ar 0.188015 6.54811 11.1109
34 Ar 0.153729 11.0186 2.14276
35 Ar 0.10121 11.1472 6.60379
36 Ar -0.159271 11.2921 11.1503
37 Ar 4.5012 2.25945 2.07372
38 Ar 4.32307 2.16089 6.48916
39 Ar 4.55016 2.13681 11.0668
40 Ar 4.44071 6.53495 2.15794
41 Ar 4.41735 6.7664 6.64822
42 Ar 4.41928 6.74705 11.0767
43 Ar 4.3597 11.0711 2.13099
44 Ar 4.33388 11.1951 6.68286
45 Ar 4.42035 11.2565 11.0927
46 Ar 8.96659 2.15487 2.42693
47 Ar 8.78976 2.24734 6.84859
48 Ar 8.72326 2.23106 10.9629
49 Ar 8.87519 6.69589 2.04857
50 Ar 8.86427 6.73241 6.70898
51 Ar 8.85509 6.68756 11.1099
52 Ar 8.76076 11.0335 2.1441
53 Ar 8.90482 10.808 6.55843
54 Ar 8.92364 11.1644 11.1846
55 Ar 2.0724 -0.0637155 2.37548
56 Ar 2.24368 0.0628642 6.42968
57 Ar 2.1477 -0.0799609 11.0001
58 Ar 2.20143 4.41755 2.04464
59 Ar 2.37716 4.34858 6.83602
60 Ar 2.21892 4.29799 11.0993
61 Ar 2.27402 8.82182 2.06911
62 Ar 2.20819 8.95488 6.84086
63 Ar 2.3839 8.88468 11.0446
64 Ar 6.82906 -0.0832844 2.26466
65 Ar 6.722 -0.0356376 6.65352
66 Ar 6.74873 0.0723864 11.2698
67 Ar 6.77796 4.55071 2.15265
68 Ar 6.55242 4.60982 6.72082
69 Ar 6.68819 4.43554 11.2162
70 Ar 6.5384 8.82154 2.12918
71 Ar 6.55512 8.75816 6.521
72 Ar 6.74976 8.87695 11.1474
73 Ar 11.1088 -0.00252848 2.41784
74 Ar 11.1022 -0.168454 6.76348
75 Ar 11.0641 0.176889 11.2671
76 Ar 11.183 4.68906 2.44322
77 Ar 10.9649 4.43752 6.80091
78 Ar 11.2117 4.52961 11.1041
79 Ar 11.1187 8.84965 2.24594
80 Ar 11.3534 8.89987 6.76715
81 Ar 10.9646 8.93042 11.079
82 Ar 2.33085 2.1298 -0.131256
83 Ar 2.14696 2.29327 4.34153
84 Ar 2.12594 2.08475 9.09959
85 Ar 2.3275 6.70821 -0.0607708
86 Ar 2.08946 6.53812 4.52474
87 Ar 2.34883 6.77635 8.76595
88 Ar 2.12043 11.2486 -0.00800513
89 Ar 2.35674 10.9402 4.37425
90 Ar 2.17068 11.1867 8.99253
91 Ar 6.754 2.21187 0.071489
92 Ar 6.58784 2.29705 4.46921
93 Ar 6.60504 2.14277 8.80677
94 Ar 6.63211 6.78294 -0.0596387
95 Ar 6.80092 6.65188 4.35961
96 Ar 6.66499 6.70334 8.93613
97 Ar 6.5404 11.2873 -0.0613191
98 Ar 6.60916 11.14 4.42622
99 Ar 6.67925 11.1734 8.70106
100 Ar 11.0408 2.50485 0.101622
101 Ar 11.0307 2.23029 4.72354
102 Ar 11.029 2.32251 8.90875
103 Ar 11.2388 6.65477 -0.230152
104 Ar 11.1921 6.73414 4.69782
105 Ar 11.0973 6.77201 8.91466
106 Ar 11.1787 11.1944 0.161571
107 Ar 11.1537 10.9686 4.28355
108 Ar 11.1508 11.0462 8.90357
ITEM: TIMESTEP
22020
ITEM: NUMBER OF ATOMS
108
ITEM: BOX BOUNDS pp pp pp
0.0000000000000000e+00 1.3349999400000000e+01
0.0000000000000000e+00 1.3349999400000000e+01
0.0000000000000000e+00 1.3349999400000000e+01
ITEM: ATOMS id element xu yu zu
1 Ar -0.0542027 0.18954 -0.00655277
2 Ar -0.135928 0.0650447 4.40225
3 Ar -0.217409 0.0561334 8.98656
4 Ar 0.00601619 4.47595 0.154091
5 Ar -0.0780633 4.3706 4.71303
6 Ar -0.132525 4.50847 8.85792
7 Ar 0.0688867 8.80647 -0.217346
8 Ar 0.018642 8.87131 4.48802
9 Ar -0.0126929 8.89513 9.13417
10 Ar 4.5286 0.0402333 0.185008
11 Ar 4.53132 0.0416928 4.14275
12 Ar 4.43044 0.0271796 8.84457
13 Ar 4.57583 4.47032 -0.250751
14 Ar 4.41291 4.45935 4.39906
15 Ar 4.44378 4.35304 9.0569
16 Ar 4.50148 9.04258 -0.142225
17 Ar 4.48923 8.81138 4.34972
18 Ar 4.75695 8.95703 8.81589
19 Ar 8.95705 -0.0644151 0.166449
20 Ar 9.00793 -0.137451 4.62553
21 Ar 8.86871 -0.0986232 8.76668
22 Ar 8.96773 4.43012 -0.0374463
23 Ar 8.91461 4.34968 4.69177
24 Ar 8.91771 4.56763 8.85245
25 Ar 9.07506 8.99389 0.0121649
26 Ar 8.97684 8.70096 4.41176
27 Ar 8.84217 8.92556 8.91961
28 Ar -0.029552 2.24981 2.29566
29 Ar 0.00693803 2.30472 6.92691
30 Ar -0.0904739 2.29961 11.0831
31 Ar -0.00205724 6.61009 2.35862
32 Ar 0.0525573 6.60645 6.65862
33 Ar 0.192288 6.5399 11.102
34 Ar 0.158426 11.0286 2.13693
35 Ar 0.119427 11.1506 6.61091
36 Ar -0.150136 11.2778 11.1764
37 Ar 4.48221 2.2505 2.05182
38 Ar 4.30519 2.18014 6.49254
39 Ar 4.55658 2.11717 11.0638
40 Ar 4.44703 6.53897 2.16766
41 Ar 4.41595 6.74716 6.64961
42 Ar 4.42431 6.73832 11.0662
43 Ar 4.35166 11.0697 2.13704
44 Ar 4.32587 11.1946 6.68359
45 Ar 4.39246 11.2425 11.0898
46 Ar 8.96215 2.16529 2.4266
47 Ar 8.80092 2.27516 6.85138
48 Ar 8.73285 2.23941 10.9644
49 Ar 8.86275 6.70351 2.0597
50 Ar 8.87672 6.75331 6.72058
51 Ar 8.84472 6.68489 11.119
52 Ar 8.74951 11.0289 2.14326
53 Ar 8.92506 10.7972 6.53926
54 Ar 8.94484 11.1679 11.1832
55 Ar 2.0756 -0.0609386 2.37299
56 Ar 2.2374 0.0397606 6.4348
57 Ar 2.13195 -0.0688332 11.0079
58 Ar 2.21507 4.39984 2.04201
59 Ar 2.36594 4.35676 6.82206
60 Ar 2.21469 4.31396 11.1093
61 Ar 2.27967 8.81732 2.07335
62 Ar 2.21984 8.94109 6.82486
63 Ar 2.38259 8.89148 11.0391
64 Ar 6.80903 -0.100359 2.25127
65 Ar 6.73174 -0.040406 6.67071
66 Ar 6.75759 0.0743013 11.2715
67 Ar 6.78196 4.55029 2.15398
68 Ar 6.5429 4.58931 6.72331
69 Ar 6.68986 4.42293 11.1965
70 Ar 6.55888 8.8204 2.12113
71 Ar 6.56048 8.7382 6.55064
72 Ar 6.75429 8.89138 11.1346
73 Ar 11.1255 0.0142233 2.40998
74 Ar 11.1077 -0.160871 6.76842
75 Ar 11.0645 0.154671 11.2634
76 Ar 11.1562 4.72159 2.44739
77 Ar 10.9568 4.45697 6.7875
78 Ar 11.2127 4.52527 11.1079
79 Ar 11.1209 8.84499 2.25744
80 Ar 11.3572 8.92083 6.77091
81 Ar 10.9614 8.93025 11.0721
82 Ar 2.33107 2.12301 -0.139282
83 Ar 2.13797 2.29875 4.36042
84 Ar 2.12553 2.07421 9.0927
85 Ar 2.31954 6.712 -0.0452983
86 Ar 2.0719 6.53259 4.53169
87 Ar 2.34215 6.77403 8.76131
88 Ar 2.12508 11.2422 -0.026
89 Ar 2.37799 10.9589 4.36667
90 Ar 2.19001 11.1867 8.99474
91 Ar 6.75924 2.21549 0.0482387
92 Ar 6.59911 2.30213 4.46012
93 Ar 6.6109 2.11796 8.82391
94 Ar 6.61144 6.77188 -0.0645621
95 Ar 6.81363 6.62745 4.36306
96 Ar 6.65493 6.69608 8.94948
97 Ar 6.57084 11.2942 -0.030075
98 Ar 6.62295 11.1458 4.40495
99 Ar 6.68337 11.1826 8.69809
100 Ar 11.0518 2.49309 0.0988483
101 Ar 11.017 2.21104 4.71438
102 Ar 11.0277 2.32468 8.90815
103 Ar 11.229 6.66345 -0.23139
104 Ar 11.183 6.71987 4.6989
105 Ar 11.1001 6.79973 8.9256
106 Ar 11.1864 11.2032 0.141788
107 Ar 11.1466 10.9794 4.28077
108 Ar 11.169 11.0442 8.89695
ITEM: TIMESTEP
22030
ITEM: NUMBER OF ATOMS
108
ITEM: BOX BOUNDS pp pp pp
0.0000000000000000e+00 1.3349999400000000e+01
0.0000000000000000e+00 1.3349999400000000e+01
0.0000000000000000e+00 1.3349999400000000e+01
ITEM: ATOMS id element xu yu zu
1 Ar -0.0844976 0.183941 -0.0128721
2 Ar -0.140326 0.061847 4.41949
3 Ar -0.217644 0.0572079 8.9909
4 Ar 0.0167055 4.46985 0.156289
5 Ar -0.0760432 4.36831 4.71854
6 Ar -0.134215 4.50717 8.86608
7 Ar 0.0649069 8.80244 -0.230587
8 Ar 0.00784483 8.84915 4.47448
9 Ar -0.0106302 8.89909 9.1332
10 Ar 4.52992 0.0486175 0.191874
11 Ar 4.54316 0.0630978 4.15196
12 Ar 4.42412 0.0415356 8.84839
13 Ar 4.6028 4.47398 -0.231294
14 Ar 4.40327 4.46371 4.40595
15 Ar 4.42872 4.35051 9.04266
16 Ar 4.49913 9.0484 -0.132429
17 Ar 4.48566 8.8262 4.33796
18 Ar 4.76045 8.97684 8.82245
19 Ar 8.97014 -0.0629603 0.17614
20 Ar 9.01925 -0.158029 4.63138
21 Ar 8.86683 -0.0728524 8.77558
22 Ar 8.95241 4.43031 -0.0568463
23 Ar 8.91342 4.34549 4.69515
24 Ar 8.89498 4.54723 8.83849
25 Ar 9.08605 9.00829 0.00974556
26 Ar 8.96839 8.69875 4.39832
27 Ar 8.83261 8.93159 8.92176
28 Ar -0.0625037 2.23405 2.29519
29 Ar -0.0114883 2.2984 6.93614
30 Ar -0.0874501 2.29808 11.0762
31 Ar -0.00295409 6.62162 2.38057
32 Ar 0.0656057 6.60989 6.6448
33 Ar 0.196035 6.53275 11.0924
34 Ar 0.160293 11.0383 2.1327
35 Ar 0.137014 11.1547 6.61856
36 Ar -0.140453 11.2616 11.2027
37 Ar 4.4631 2.24387 2.03248
38 Ar 4.29014 2.19869 6.49817
39 Ar 4.56197 2.09709 11.0626
40 Ar 4.45282 6.5439 2.17762
41 Ar 4.41419 6.72612 6.64999
42 Ar 4.42998 6.72882 11.0553
43 Ar 4.34506 11.0686 2.14326
44 Ar 4.31949 11.1936 6.68309
45 Ar 4.36685 11.2285 11.0868
46 Ar 8.95721 2.17727 2.42521
47 Ar 8.81176 2.3014 6.8523
48 Ar 8.74558 2.2481 10.9674
49 Ar 8.85208 6.7111 2.07137
50 Ar 8.88922 6.77422 6.7325
51 Ar 8.83501 6.68156 11.1287
52 Ar 8.74034 11.0235 2.14506
53 Ar 8.9452 10.7885 6.52095
54 Ar 8.96501 11.1725 11.1809
55 Ar 2.08031 -0.056502 2.36828
56 Ar 2.22981 0.016305 6.44153
57 Ar 2.11697 -0.0566905 11.0193
58 Ar 2.23007 4.38234 2.04135
59 Ar 2.35303 4.36576 6.80791
60 Ar 2.2105 4.33168 11.1194
61 Ar 2.28463 8.81221 2.07896
62 Ar 2.2314 8.92786 6.80691
63 Ar 2.37984 8.89963 11.0338
64 Ar 6.78853 -0.114567 2.2388
65 Ar 6.7395 -0.0444415 6.68497
66 Ar 6.7658 0.0740354 11.2703
67 Ar 6.78526 4.54738 2.15569
68 Ar 6.53364 4.56702 6.72585
69 Ar 6.69313 4.41116 11.1741
70 Ar 6.58069 8.82077 2.11383
71 Ar 6.56845 8.72109 6.57945
72 Ar 6.75847 8.90836 11.1223
73 Ar 11.1417 0.030873 2.39908
74 Ar 11.1137 -0.152386 6.77198
75 Ar 11.0632 0.13227 11.2587
76 Ar 11.1273 4.75045 2.45035
77 Ar 10.9519 4.47749 6.7737
78 Ar 11.2116 4.51995 11.111
79 Ar 11.125 8.83887 2.26701
80 Ar 11.3594 8.94196 6.77404
81 Ar 10.9609 8.93025 11.0666
82 Ar 2.32979 2.11668 -0.146098
83 Ar 2.12986 2.30436 4.37956
84 Ar 2.12681 2.06553 9.08205
85 Ar 2.31131 6.71436 -0.0301225
86 Ar 2.0578 6.52819 4.5372
87 Ar 2.33436 6.76954 8.75959
88 Ar 2.13118 11.2353 -0.0454275
89 Ar 2.39692 10.9785 4.36026
90 Ar 2.20842 11.1858 8.99445
91 Ar 6.7654 2.21941 0.0258994
92 Ar 6.61164 2.30641 4.45088
93 Ar 6.61614 2.09505 8.8409
94 Ar 6.5919 6.75987 -0.0696915
95 Ar 6.82435 6.60239 4.36677
96 Ar 6.64514 6.68733 8.96253
97 Ar 6.60303 11.2973 0.00063403
98 Ar 6.63669 11.1495 4.38477
99 Ar 6.68801 11.191 8.69807
100 Ar 11.0637 2.4778 0.0963276
101 Ar 11.0053 2.1916 4.70419
102 Ar 11.0261 2.32485 8.90838
103 Ar 11.2183 6.67298 -0.229174
104 Ar 11.1729 6.70489 4.69792
105 Ar 11.1035 6.82599 8.93654
106 Ar 11.1946 11.2112 0.121637
107 Ar 11.1397 10.9912 4.28013
108 Ar 11.1858 11.0434 8.89068
ITEM: TIMESTEP
22040
ITEM: NUMBER OF ATOMS
108
ITEM: BOX BOUNDS pp pp pp
0.0000000000000000e+00 1.3349999400000000e+01
0.0000000000000000e+00 1.3349999400000000e+01
0.0000000000000000e+00 1.3349999400000000e+01
ITEM: ATOMS id element xu yu zu
1 Ar -0.113998 0.177919 -0.0178269
2 Ar -0.143068 0.0573805 4.43947
3 Ar -0.216122 0.0568736 8.99408
4 Ar 0.0269299 4.46361 0.156234
5 Ar -0.07412 4.36508 4.72154
6 Ar -0.133423 4.50681 8.87443
7 Ar 0.0600135 8.79969 -0.241974
8 Ar -0.00112166 8.8285 4.46036
9 Ar -0.00696227 8.90322 9.13084
10 Ar 4.52905 0.0554863 0.195655
11 Ar 4.55347 0.0839921 4.16434
12 Ar 4.41778 0.0549305 8.85159
13 Ar 4.62658 4.47669 -0.208919
14 Ar 4.39395 4.46832 4.41222
15 Ar 4.41419 4.34848 9.02693
16 Ar 4.49598 9.05297 -0.122067
17 Ar 4.48141 8.83994 4.32715
18 Ar 4.75908 8.99683 8.83084
19 Ar 8.98385 -0.0589685 0.184096
20 Ar 9.02836 -0.177327 4.63573
21 Ar 8.86662 -0.0478746 8.78683
22 Ar 8.93614 4.43194 -0.075467
23 Ar 8.91075 4.34383 4.69507
24 Ar 8.87053 4.52724 8.82732
25 Ar 9.09411 9.0209 0.00689069
26 Ar 8.95871 8.6988 4.38421
27 Ar 8.82284 8.93798 8.92301
28 Ar -0.0960074 2.22002 2.29426
29 Ar -0.0296901 2.28978 6.94219
30 Ar -0.084573 2.29666 11.0712
31 Ar -0.00285162 6.63458 2.40015
32 Ar 0.0779341 6.61457 6.6349
33 Ar 0.199057 6.52691 11.0824
34 Ar 0.159452 11.0473 2.13002
35 Ar 0.153793 11.159 6.62651
36 Ar -0.130217 11.2437 11.2285
37 Ar 4.44435 2.23981 2.01619
38 Ar 4.27813 2.21606 6.50602
39 Ar 4.56605 2.07722 11.0632
40 Ar 4.45804 6.5497 2.18783
41 Ar 4.41221 6.70378 6.64935
42 Ar 4.43589 6.71882 11.0443
43 Ar 4.34008 11.0678 2.14935
44 Ar 4.31518 11.1921 6.6814
45 Ar 4.34428 11.2152 11.0841
46 Ar 8.95177 2.19046 2.4226
47 Ar 8.82195 2.32533 6.85131
48 Ar 8.7615 2.2569 10.972
49 Ar 8.84312 6.71858 2.08302
50 Ar 8.90157 6.7948 6.7447
51 Ar 8.82603 6.67766 11.1387
52 Ar 8.73392 11.0177 2.14956
53 Ar 8.96478 10.7818 6.50399
54 Ar 8.98383 11.1782 11.1777
55 Ar 2.08632 -0.0502669 2.36145
56 Ar 2.2212 -0.00682376 6.44978
57 Ar 2.10286 -0.0438501 11.034
58 Ar 2.24602 4.36525 2.04267
59 Ar 2.33827 4.37544 6.79388
60 Ar 2.20677 4.35057 11.1297
61 Ar 2.28865 8.80673 2.08592
62 Ar 2.24281 8.9154 6.78714
63 Ar 2.37578 8.90858 11.0286
64 Ar 6.76803 -0.125279 2.2275
65 Ar 6.74527 -0.0475525 6.69583
66 Ar 6.77339 0.0711552 11.2666
67 Ar 6.78781 4.54191 2.15771
68 Ar 6.52478 4.54322 6.72846
69 Ar 6.69755 4.40028 11.1491
70 Ar 6.60335 8.82244 2.10737
71 Ar 6.57872 8.70695 6.60672
72 Ar 6.76217 8.92771 11.111
73 Ar 11.1567 0.0469598 2.38537
74 Ar 11.1203 -0.143155 6.77431
75 Ar 11.06 0.110088 11.2529
76 Ar 11.097 4.77521 2.45178
77 Ar 10.9502 4.49877 6.76011
78 Ar 11.2082 4.51387 11.1135
79 Ar 11.1307 8.83155 2.27442
80 Ar 11.3602 8.96268 6.77619
81 Ar 10.9631 8.93045 11.0624
82 Ar 2.3268 2.11092 -0.151758
83 Ar 2.12243 2.30977 4.39857
84 Ar 2.12969 2.05905 9.06783
85 Ar 2.30302 6.71523 -0.0155084
86 Ar 2.04775 6.52497 4.54096
87 Ar 2.32561 6.76309 8.76077
88 Ar 2.1386 11.228 -0.0656644
89 Ar 2.41297 10.9987 4.35512
90 Ar 2.22551 11.1841 8.99167
91 Ar 6.77237 2.22346 0.00492759
92 Ar 6.62509 2.30978 4.44166
93 Ar 6.62077 2.07443 8.85742
94 Ar 6.57388 6.7474 -0.0750705
95 Ar 6.83282 6.57719 4.37103
96 Ar 6.63573 6.67719 8.97499
97 Ar 6.63612 11.2966 0.0297824
98 Ar 6.65004 11.1511 4.36628
99 Ar 6.69325 11.1989 8.70102
100 Ar 11.0761 2.45966 0.0940033
101 Ar 10.9957 2.17245 4.69319
102 Ar 11.0244 2.32319 8.90947
103 Ar 11.207 6.68304 -0.223615
104 Ar 11.1619 6.68975 4.69523
105 Ar 11.1074 6.85014 8.94725
106 Ar 11.2031 11.2182 0.101755
107 Ar 11.1335 11.0037 4.28136
108 Ar 11.201 11.0439 8.88498
ITEM: TIMESTEP
22050
ITEM: NUMBER OF ATOMS
108
ITEM: BOX BOUNDS pp pp pp
0.0000000000000000e+00 1.3349999400000000e+01
0.0000000000000000e+00 1.3349999400000000e+01
0.0000000000000000e+00 1.3349999400000000e+01
ITEM: ATOMS id element xu yu zu
1 Ar -0.142005 0.171612 -0.0213746
2 Ar -0.144026 0.0516994 4.46173
3 Ar -0.212788 0.0549426 8.99628
4 Ar 0.036413 4.45743 0.154232
5 Ar -0.0726299 4.36078 4.72184
6 Ar -0.130322 4.50736 8.88258
7 Ar 0.0543123 8.79807 -0.251233
8 Ar -0.00821591 8.81016 4.4461
9 Ar -0.0015335 8.90753 9.12706
10 Ar 4.52619 0.0602387 0.195984
11 Ar 4.56213 0.104214 4.17981
12 Ar 4.41143 0.0669051 8.85402
13 Ar 4.64686 4.47824 -0.184266
14 Ar 4.38513 4.47296 4.41766
15 Ar 4.40022 4.3467 9.01007
16 Ar 4.49225 9.0562 -0.111373
17 Ar 4.47699 8.85225 4.3177
18 Ar 4.75281 9.01651 8.84086
19 Ar 8.99796 -0.0524387 0.190378
20 Ar 9.03507 -0.194897 4.63833
21 Ar 8.86828 -0.0240771 8.80017
22 Ar 8.91944 4.43485 -0.0929352
23 Ar 8.90671 4.34473 4.69161
24 Ar 8.84491 4.50831 8.81906
25 Ar 9.09921 9.03152 0.00363517
26 Ar 8.94791 8.70103 4.36972
27 Ar 8.81311 8.94478 8.92344
28 Ar -0.129269 2.20816 2.29319
29 Ar -0.0474957 2.27911 6.94498
30 Ar -0.0818734 2.29537 11.0682
31 Ar -0.00185465 6.64822 2.41677
32 Ar 0.0889409 6.62052 6.62923
33 Ar 0.201113 6.52263 11.0722
34 Ar 0.156108 11.0556 2.12884
35 Ar 0.169546 11.1633 6.63459
36 Ar -0.119428 11.2245 11.2529
37 Ar 4.4264 2.23839 2.00335
38 Ar 4.26929 2.23186 6.51602
39 Ar 4.56855 2.05814 11.0657
40 Ar 4.46269 6.55634 2.19828
41 Ar 4.41021 6.68069 6.64774
42 Ar 4.44165 6.70858 11.0336
43 Ar 4.3369 11.0675 2.155
44 Ar 4.31331 11.1902 6.67853
45 Ar 4.32539 11.203 11.0818
46 Ar 8.94592 2.20455 2.41864
47 Ar 8.83122 2.34627 6.84837
48 Ar 8.78055 2.26553 10.9781
49 Ar 8.83577 6.72587 2.09413
50 Ar 8.91365 6.81468 6.7571
51 Ar 8.81786 6.67338 11.1488
52 Ar 8.73091 11.0116 2.15674
53 Ar 8.98332 10.7772 6.48881
54 Ar 9.00101 11.185 11.1735
55 Ar 2.09338 -0.0421543 2.35262
56 Ar 2.21195 -0.0289375 6.45952
57 Ar 2.08971 -0.0306286 11.0514
58 Ar 2.26246 4.34879 2.04595
59 Ar 2.32156 4.3856 6.78024
60 Ar 2.20393 4.37007 11.1399
61 Ar 2.29151 8.80115 2.09419
62 Ar 2.25399 8.9038 6.76574
63 Ar 2.37052 8.91773 11.0238
64 Ar 6.74798 -0.131967 2.21759
65 Ar 6.7491 -0.0496021 6.70297
66 Ar 6.78039 0.0653363 11.2606
67 Ar 6.78956 4.53386 2.15996
68 Ar 6.51649 4.51821 6.73118
69 Ar 6.7026 4.3903 11.1218
70 Ar 6.62634 8.82518 2.10179
71 Ar 6.59085 8.69583 6.63188
72 Ar 6.76526 8.94919 11.1011
73 Ar 11.1704 0.0619715 2.36923
74 Ar 11.1271 -0.133341 6.77563
75 Ar 11.0553 0.0885073 11.2456
76 Ar 11.0657 4.79552 2.45131
77 Ar 10.9521 4.52045 6.74732
78 Ar 11.2027 4.50727 11.1154
79 Ar 11.1381 8.82336 2.27954
80 Ar 11.36 8.98247 6.77705
81 Ar 10.9678 8.93092 11.0596
82 Ar 2.32193 2.10588 -0.156302
83 Ar 2.1155 2.31464 4.41709
84 Ar 2.13402 2.05502 9.05037
85 Ar 2.29488 6.71461 -0.00168895
86 Ar 2.0422 6.52293 4.54267
87 Ar 2.31605 6.75494 8.76475
88 Ar 2.1472 11.2204 -0.0860108
89 Ar 2.42568 11.0193 4.35132
90 Ar 2.2409 11.1818 8.98649
91 Ar 6.77999 2.22746 -0.0143078
92 Ar 6.63909 2.31213 4.43262
93 Ar 6.62479 2.05642 8.87314
94 Ar 6.55772 6.73495 -0.0807071
95 Ar 6.83883 6.55235 4.37609
96 Ar 6.62683 6.66584 8.98656
97 Ar 6.66927 11.2921 0.0564119
98 Ar 6.66268 11.1505 4.34999
99 Ar 6.69915 11.2062 8.70687
100 Ar 11.0883 2.43936 0.091766
101 Ar 10.9882 2.15407 4.68157
102 Ar 11.0226 2.31995 8.91135
103 Ar 11.1953 6.6933 -0.214885
104 Ar 11.1501 6.67507 4.69115
105 Ar 11.1115 6.87157 8.95752
106 Ar 11.2115 11.2236 0.0827513
107 Ar 11.1283 11.0167 4.28417
108 Ar 11.2144 11.0461 8.88005
ITEM: TIMESTEP
22060
ITEM: NUMBER OF ATOMS
108
ITEM: BOX BOUNDS pp pp pp
0.0000000000000000e+00 1.3349999400000000e+01
0.0000000000000000e+00 1.3349999400000000e+01
0.0000000000000000e+00 1.3349999400000000e+01
ITEM: ATOMS id element xu yu zu
1 Ar -0.167844 0.165132 -0.0235368
2 Ar -0.143132 0.044898 4.48568
3 Ar -0.207589 0.0512966 8.99772
4 Ar 0.0449192 4.45149 0.150603
5 Ar -0.0718638 4.35541 4.71928
6 Ar -0.125117 4.50869 8.8902
7 Ar 0.0479393 8.79736 -0.258098
8 Ar -0.0134479 8.79482 4.4322
9 Ar 0.00573891 8.91205 9.12177
10 Ar 4.5216 0.0624025 0.19261
11 Ar 4.56902 0.123604 4.19827
12 Ar 4.40511 0.0770309 8.85556
13 Ar 4.66345 4.47849 -0.158024
14 Ar 4.37697 4.4774 4.4221
15 Ar 4.38683 4.34491 8.99245
16 Ar 4.48817 9.05799 -0.100557
17 Ar 4.47287 8.86287 4.30994
18 Ar 4.74177 9.03543 8.85218
19 Ar 9.01222 -0.0434606 0.195069
20 Ar 9.03918 -0.210302 4.639
21 Ar 8.87197 -0.00180263 8.81523
22 Ar 8.90278 4.43885 -0.108892
23 Ar 8.90145 4.34817 4.68493
24 Ar 8.81872 4.49099 8.81369
25 Ar 9.10141 9.04004 7.2162e-06
26 Ar 8.93608 8.70528 4.35518
27 Ar 8.80367 8.95201 8.92317
28 Ar -0.161467 2.19893 2.29227
29 Ar -0.06475 2.26673 6.94448
30 Ar -0.0793581 2.29422 11.0671
31 Ar -0.000113344 6.66172 2.42988
32 Ar 0.098096 6.62776 6.62794
33 Ar 0.201944 6.52016 11.0623
34 Ar 0.150531 11.063 2.12904
35 Ar 0.184022 11.1669 6.64266
36 Ar -0.108092 11.2042 11.275
37 Ar 4.40973 2.23954 1.99428
38 Ar 4.26362 2.24577 6.52801
39 Ar 4.56927 2.04043 11.0702
40 Ar 4.4668 6.56378 2.20897
41 Ar 4.40838 6.65742 6.6453
42 Ar 4.44691 6.69833 11.0234
43 Ar 4.33564 11.068 2.15996
44 Ar 4.3142 11.1879 6.67454
45 Ar 4.31071 11.1924 11.0803
46 Ar 8.93977 2.21919 2.41319
47 Ar 8.83942 2.36364 6.84343
48 Ar 8.80257 2.27373 10.9858
49 Ar 8.82986 6.73286 2.10423
50 Ar 8.92537 6.83355 6.76959
51 Ar 8.81057 6.66895 11.1586
52 Ar 8.73189 11.0057 2.16654
53 Ar 9.00037 10.7748 6.47581
54 Ar 9.01628 11.1927 11.1684
55 Ar 2.10122 -0.0321513 2.34196
56 Ar 2.20245 -0.0493644 6.47067
57 Ar 2.07761 -0.0173292 11.071
58 Ar 2.27887 4.33322 2.05111
59 Ar 2.30289 4.39603 6.76724
60 Ar 2.20234 4.3896 11.1501
61 Ar 2.29303 8.79573 2.1037
62 Ar 2.26492 8.89315 6.74293
63 Ar 2.3642 8.92654 11.0195
64 Ar 6.72875 -0.134247 2.20927
65 Ar 6.75109 -0.050509 6.70623
66 Ar 6.78687 0.0563816 11.2527
67 Ar 6.79048 4.52335 2.16238
68 Ar 6.5089 4.49225 6.73397
69 Ar 6.70769 4.38119 11.0926
70 Ar 6.64912 8.82871 2.09713
71 Ar 6.60434 8.68771 6.6545
72 Ar 6.76763 8.97251 11.0931
73 Ar 11.1822 0.0753559 2.35117
74 Ar 11.134 -0.123117 6.77614
75 Ar 11.0493 0.0678873 11.2368
76 Ar 11.0343 4.81108 2.44865
77 Ar 10.9573 4.54213 6.73592
78 Ar 11.1951 4.50042 11.1168
79 Ar 11.1467 8.81462 2.28229
80 Ar 11.3589 9.00081 6.77636
81 Ar 10.975 8.9317 11.0582
82 Ar 2.31505 2.10172 -0.159737
83 Ar 2.10894 2.31863 4.43481
84 Ar 2.1396 2.05359 9.03005
85 Ar 2.28706 6.7125 0.0111442
86 Ar 2.04145 6.52205 4.54212
87 Ar 2.30592 6.7454 8.77134
88 Ar 2.15678 11.2127 -0.105722
89 Ar 2.43467 11.0402 4.34885
90 Ar 2.2543 11.1791 8.97905
91 Ar 6.7881 2.23118 -0.0315377
92 Ar 6.6533 2.31339 4.42393
93 Ar 6.62824 2.04131 8.88781
94 Ar 6.54372 6.72301 -0.0865783
95 Ar 6.84223 6.52836 4.3822
96 Ar 6.6185 6.65358 8.99694
97 Ar 6.70175 11.2839 0.0796798
98 Ar 6.67428 11.1476 4.33633
99 Ar 6.70569 11.2131 8.71549
100 Ar 11.0998 2.41766 0.0894594
101 Ar 10.9827 2.13691 4.66952
102 Ar 11.0207 2.3154 8.91397
103 Ar 11.1835 6.70342 -0.203214
104 Ar 11.1375 6.66146 4.68595
105 Ar 11.1157 6.88982 8.96714
106 Ar 11.2195 11.2274 0.0651851
107 Ar 11.1245 11.0297 4.28822
108 Ar 11.226 11.0498 8.8761
ITEM: TIMESTEP
22070
ITEM: NUMBER OF ATOMS
108
ITEM: BOX BOUNDS pp pp pp
0.0000000000000000e+00 1.3349999400000000e+01
0.0000000000000000e+00 1.3349999400000000e+01
0.0000000000000000e+00 1.3349999400000000e+01
ITEM: ATOMS id element xu yu zu
1 Ar -0.190881 0.158552 -0.0243996
2 Ar -0.140374 0.0371059 4.51064
3 Ar -0.20047 0.0458923 8.99859
4 Ar 0.0522514 4.44596 0.145665
5 Ar -0.0720612 4.3491 4.71377
6 Ar -0.118034 4.51061 8.89697
7 Ar 0.0410569 8.79731 -0.262312
8 Ar -0.0168616 8.78306 4.41917
9 Ar 0.0148573 8.9168 9.11491
10 Ar 4.51554 0.0616675 0.185419
11 Ar 4.57405 0.14201 4.21954
12 Ar 4.39887 0.0849324 8.85611
13 Ar 4.67622 4.47729 -0.1309
14 Ar 4.36964 4.48139 4.42542
15 Ar 4.374 4.34293 8.97444
16 Ar 4.48393 9.05826 -0.0898062
17 Ar 4.46944 8.87164 4.30415
18 Ar 4.72621 9.05311 8.86446
19 Ar 9.0263 -0.0322129 0.198259
20 Ar 9.04059 -0.22313 4.63758
21 Ar 8.87773 0.0186528 8.8316
22 Ar 8.88658 4.44379 -0.123006
23 Ar 8.89523 4.35406 4.6753
24 Ar 8.79261 4.47572 8.8111
25 Ar 9.1008 9.0464 -0.00397298
26 Ar 8.92339 8.7114 4.34093
27 Ar 8.79482 8.95966 8.92238
28 Ar -0.191779 2.19272 2.29181
29 Ar -0.0813138 2.253 6.94078
30 Ar -0.0770179 2.29324 11.0677
31 Ar 0.00219838 6.67426 2.43903
32 Ar 0.104975 6.63626 6.63096
33 Ar 0.201282 6.51973 11.053
34 Ar 0.143037 11.0697 2.13053
35 Ar 0.196941 11.1695 6.65062
36 Ar -0.0962284 11.1834 11.2943
37 Ar 4.39477 2.24298 1.98915
38 Ar 4.26108 2.25756 6.54184
39 Ar 4.56809 2.02456 11.0767
40 Ar 4.47044 6.57198 2.21983
41 Ar 4.40692 6.63451 6.6422
42 Ar 4.45136 6.6883 11.0141
43 Ar 4.33635 11.0692 2.164
44 Ar 4.31811 11.1852 6.66948
45 Ar 4.30064 11.1838 11.0796
46 Ar 8.93348 2.23408 2.40615
47 Ar 8.84648 2.37698 6.83646
48 Ar 8.82728 2.28125 10.9952
49 Ar 8.82516 6.73946 2.11293
50 Ar 8.93665 6.8511 6.78204
51 Ar 8.8042 6.66468 11.1679
52 Ar 8.73738 11.0002 2.17885
53 Ar 9.01552 10.7745 6.46535
54 Ar 9.02942 11.2011 11.1622
55 Ar 2.10957 -0.0203119 2.32965
56 Ar 2.19313 -0.0674749 6.48322
57 Ar 2.06661 -0.00423645 11.0922
58 Ar 2.2947 4.3188 2.05803
59 Ar 2.28228 4.40651 6.75508
60 Ar 2.20234 4.40864 11.1601
61 Ar 2.29308 8.79077 2.11433
62 Ar 2.27557 8.88344 6.71897
63 Ar 2.35694 8.93449 11.0159
64 Ar 6.71068 -0.131904 2.20267
65 Ar 6.75139 -0.050246 6.70559
66 Ar 6.79287 0.044231 11.2434
67 Ar 6.79057 4.51057 2.16489
68 Ar 6.50211 4.46561 6.73681
69 Ar 6.71221 4.37283 11.0621
70 Ar 6.67113 8.83278 2.09337
71 Ar 6.61859 8.68257 6.67434
72 Ar 6.76919 8.99731 11.0873
73 Ar 11.1919 0.0865421 2.33175
74 Ar 11.1406 -0.112668 6.77604
75 Ar 11.0422 0.0485609 11.2262
76 Ar 11.0032 4.82167 2.4435
77 Ar 10.9658 4.56336 6.72642
78 Ar 11.1857 4.49357 11.1178
79 Ar 11.1563 8.80568 2.28264
80 Ar 11.3574 9.01727 6.77391
81 Ar 10.9845 8.93285 11.0583
82 Ar 2.30609 2.09865 -0.162029
83 Ar 2.10267 2.32142 4.4515
84 Ar 2.14616 2.05481 9.00733
85 Ar 2.27969 6.70896 0.0228465
86 Ar 2.0456 6.52231 4.53919
87 Ar 2.29543 6.73479 8.78029
88 Ar 2.16719 11.2048 -0.124046
89 Ar 2.43972 11.0611 4.34768
90 Ar 2.26547 11.1762 8.96954
91 Ar 6.79649 2.2344 -0.0465983
92 Ar 6.66741 2.31349 4.41574
93 Ar 6.63116 2.02928 8.90122
94 Ar 6.53214 6.71203 -0.0926365
95 Ar 6.84291 6.50566 4.38952
96 Ar 6.61082 6.64079 9.00581
97 Ar 6.73293 11.2723 0.0989118
98 Ar 6.68452 11.1426 4.32563
99 Ar 6.71285 11.2195 8.72669
100 Ar 11.1101 2.3953 0.0868901
101 Ar 10.9792 2.12134 4.65719
102 Ar 11.019 2.30982 8.9172
103 Ar 11.1718 6.71307 -0.188877
104 Ar 11.1244 6.64948 4.67985
105 Ar 11.12 6.90453 8.97593
106 Ar 11.2266 11.229 0.0495423
107 Ar 11.1225 11.0426 4.29317
108 Ar 11.2357 11.0552 8.87327
ITEM: TIMESTEP
22080
ITEM: NUMBER OF ATOMS
108
ITEM: BOX BOUNDS pp pp pp
0.0000000000000000e+00 1.3349999400000000e+01
0.0000000000000000e+00 1.3349999400000000e+01
0.0000000000000000e+00 1.3349999400000000e+01
ITEM: ATOMS id element xu yu zu
1 Ar -0.210546 0.151903 -0.0241094
2 Ar -0.135789 0.0284802 4.53586
3 Ar -0.191381 0.0387629 8.9991
4 Ar 0.0582465 4.44094 0.139723
5 Ar -0.0734069 4.34207 4.70528
6 Ar -0.10932 4.51283 8.90266
7 Ar 0.0338491 8.79765 -0.263632
8 Ar -0.0185208 8.77532 4.40752
9 Ar 0.0257406 8.92181 9.10639
10 Ar 4.50829 0.0578971 0.174443
11 Ar 4.57717 0.159279 4.24337
12 Ar 4.39278 0.0903053 8.85565
13 Ar 4.6851 4.47454 -0.10359
14 Ar 4.36331 4.48464 4.42755
15 Ar 4.36172 4.34062 8.95642
16 Ar 4.47969 9.05693 -0.0792786
17 Ar 4.46699 8.87846 4.30052
18 Ar 4.70652 9.06916 8.87729
19 Ar 9.03985 -0.0189582 0.200032
20 Ar 9.03924 -0.233014 4.63399
21 Ar 8.8855 0.0370441 8.8488
22 Ar 8.87119 4.44953 -0.134982
23 Ar 8.88836 4.36221 4.6631
24 Ar 8.76721 4.46283 8.81105
25 Ar 9.09752 9.05061 -0.00829245
26 Ar 8.90999 8.71917 4.32735
27 Ar 8.78685 8.96771 8.92129
28 Ar -0.219429 2.1899 2.29209
29 Ar -0.0970621 2.23832 6.934
30 Ar -0.0748364 2.29244 11.0698
31 Ar 0.00490304 6.68505 2.44383
32 Ar 0.109283 6.64598 6.638
33 Ar 0.19887 6.52151 11.0447
34 Ar 0.133971 11.0755 2.13316
35 Ar 0.208012 11.1706 6.65836
36 Ar -0.0838733 11.1624 11.3099
37 Ar 4.38196 2.24827 1.98803
38 Ar 4.2615 2.26708 6.55725