ITEM: TIMESTEP
6000
ITEM: NUMBER OF ATOMS
108
ITEM: BOX BOUNDS pp pp pp
0.0000000000000000e+00 1.3349999400000000e+01
0.0000000000000000e+00 1.3349999400000000e+01
0.0000000000000000e+00 1.3349999400000000e+01
ITEM: ATOMS id element xu yu zu
1 Ar 0.0163002 0.10846 0.250738
2 Ar -0.136773 -0.0890501 4.40093
3 Ar -0.0166783 0.250148 8.64207
4 Ar 0.00229004 4.43639 -0.0472155
5 Ar -0.116508 4.57572 4.33611
6 Ar -0.0319439 4.51537 9.07776
7 Ar -0.247231 9.05221 -0.0150918
8 Ar 0.133789 8.64702 4.42164
9 Ar -0.0174343 8.94705 8.98063
10 Ar 4.43437 -0.154893 0.0907683
11 Ar 4.58908 -0.251313 4.44895
12 Ar 4.287 -0.135726 9.01474
13 Ar 4.55709 4.43231 -0.0431915
14 Ar 4.54077 4.25545 4.38759
15 Ar 4.52018 4.50242 8.90077
16 Ar 4.40406 8.96077 0.0554714
17 Ar 4.3645 8.78716 4.46772
18 Ar 4.47297 8.8613 8.94676
19 Ar 8.84728 0.0174193 -0.248468
20 Ar 8.91039 -0.154902 4.43555
21 Ar 8.95712 0.141459 8.74949
22 Ar 8.85293 4.38352 -0.116469
23 Ar 9.01036 4.4128 4.40057
24 Ar 8.95563 4.40696 8.91973
25 Ar 9.26186 8.94585 0.0325112
26 Ar 8.83062 8.93133 4.60826
27 Ar 8.79287 9.06599 8.86076
28 Ar 0.0943086 2.31074 2.40127
29 Ar -0.00537533 2.30781 6.67456
30 Ar -0.0886285 2.30984 11.1322
31 Ar 0.0394659 6.7106 2.15262
32 Ar -0.0538943 6.66713 6.75889
33 Ar -0.2066 6.84817 11.2286
34 Ar -0.0950445 11.1703 2.18232
35 Ar -0.134314 10.9723 6.76493
36 Ar -0.128978 11.4451 11.0502
37 Ar 4.50113 2.12844 2.18824
38 Ar 4.42589 2.2295 6.83819
39 Ar 4.56456 2.1403 11.1376
40 Ar 4.45763 6.58521 2.20446
41 Ar 4.21608 6.4526 6.8041
42 Ar 4.64778 6.76829 11.0681
43 Ar 4.54804 11.0417 2.18534
44 Ar 4.38612 11.024 6.69327
45 Ar 4.2829 11.0068 11.2344
46 Ar 8.84091 2.19658 2.2162
47 Ar 9.00132 2.36456 6.5629
48 Ar 8.81696 2.17095 11.0523
49 Ar 8.92714 6.76307 2.3566
50 Ar 8.81941 6.56285 6.45715
51 Ar 9.09601 6.67439 11.222
52 Ar 8.95848 11.1067 2.1488
53 Ar 8.89399 11.1171 6.75684
54 Ar 8.9024 11.2417 11.1533
55 Ar 2.32551 0.128506 2.26793
56 Ar 2.10481 -0.0858314 6.70848
57 Ar 1.9928 -0.0167743 11.2989
58 Ar 2.352 4.42695 2.0707
59 Ar 2.17536 4.47083 6.91898
60 Ar 2.49601 4.3033 11.158
61 Ar 2.17526 8.86558 2.03421
62 Ar 2.30516 8.88723 6.75705
63 Ar 2.06976 9.02648 11.2733
64 Ar 6.74644 -0.042979 2.30342
65 Ar 6.57166 -0.010869 6.54231
66 Ar 6.53638 -0.218016 10.9617
67 Ar 6.75413 4.38868 2.21593
68 Ar 6.65184 4.40442 6.63785
69 Ar 6.79111 4.60138 11.0522
70 Ar 6.70648 9.00245 2.16274
71 Ar 6.39112 8.83476 6.72785
72 Ar 6.93687 8.8699 11.199
73 Ar 11.2688 0.0758989 2.17996
74 Ar 11.1098 0.00378058 6.46621
75 Ar 11.1102 0.121734 10.9648
76 Ar 11.1036 4.44846 2.24771
77 Ar 11.0645 4.51195 6.79309
78 Ar 11.1362 4.337 11.1841
79 Ar 11.3056 8.82969 2.32869
80 Ar 11.1877 8.7796 6.62854
81 Ar 11.1876 9.09225 11.0995
82 Ar 2.26874 2.29421 0.073388
83 Ar 2.27862 2.24661 4.56122
84 Ar 2.26737 2.22044 8.96321
85 Ar 2.20183 6.70438 -0.24138
86 Ar 2.25868 6.50165 4.33657
87 Ar 2.35153 6.66744 9.06944
88 Ar 2.09425 11.1121 0.108926
89 Ar 2.22836 11.1357 4.43466
90 Ar 2.1825 11.1618 8.79189
91 Ar 6.64109 2.24725 -0.163448
92 Ar 6.73511 2.13417 4.48676
93 Ar 6.65126 2.28645 8.79982
94 Ar 6.83452 6.72633 0.171579
95 Ar 6.63549 6.672 4.35205
96 Ar 6.70984 6.6595 8.85569
97 Ar 6.66437 11.0928 -0.221107
98 Ar 6.70624 11.0643 4.43797
99 Ar 6.5777 11.1579 8.82287
100 Ar 10.9376 2.316 0.00545592
101 Ar 11.2314 2.27644 4.34081
102 Ar 10.9714 2.23322 8.94225
103 Ar 11.0983 6.68472 0.205072
104 Ar 11.2033 6.69113 4.63271
105 Ar 11.1632 6.82227 8.89792
106 Ar 11.2545 11.305 -0.084238
107 Ar 11.0307 10.9407 4.51194
108 Ar 11.1328 11.1911 8.89037
ITEM: TIMESTEP
6010
ITEM: NUMBER OF ATOMS
108
ITEM: BOX BOUNDS pp pp pp
0.0000000000000000e+00 1.3349999400000000e+01
0.0000000000000000e+00 1.3349999400000000e+01
0.0000000000000000e+00 1.3349999400000000e+01
ITEM: ATOMS id element xu yu zu
1 Ar 0.0123887 0.106912 0.270887
2 Ar -0.15416 -0.061255 4.40758
3 Ar -0.0209646 0.269799 8.66592
4 Ar 0.00711651 4.44751 -0.0406992
5 Ar -0.107274 4.56928 4.32528
6 Ar -0.0222021 4.52346 9.08125
7 Ar -0.232849 9.01411 -0.0177806
8 Ar 0.127209 8.64436 4.41569
9 Ar -0.0396818 8.94388 8.97048
10 Ar 4.4663 -0.17554 0.10874
11 Ar 4.61259 -0.230231 4.4596
12 Ar 4.28509 -0.163898 9.00577
13 Ar 4.57411 4.41628 -0.050749
14 Ar 4.55931 4.26809 4.38234
15 Ar 4.50312 4.51298 8.90996
16 Ar 4.41824 8.95981 0.0475907
17 Ar 4.35364 8.7992 4.46414
18 Ar 4.4765 8.8775 8.95242
19 Ar 8.84842 0.0103624 -0.247978
20 Ar 8.90653 -0.138059 4.42227
21 Ar 8.94328 0.114619 8.74549
22 Ar 8.86242 4.38009 -0.118708
23 Ar 9.01228 4.4029 4.36773
24 Ar 8.96023 4.4241 8.9039
25 Ar 9.23809 8.96011 0.0433629
26 Ar 8.84121 8.94791 4.60084
27 Ar 8.79291 9.06441 8.87917
28 Ar 0.097311 2.29173 2.37554
29 Ar -0.0179224 2.28559 6.66626
30 Ar -0.0933233 2.29719 11.1104
31 Ar 0.0271912 6.69621 2.15484
32 Ar -0.0507207 6.66269 6.77966
33 Ar -0.213334 6.8376 11.2269
34 Ar -0.0665098 11.1834 2.17903
35 Ar -0.122968 10.9703 6.78119
36 Ar -0.131552 11.4438 11.0727
37 Ar 4.51295 2.11217 2.19425
38 Ar 4.41946 2.23414 6.83828
39 Ar 4.56378 2.14283 11.1231
40 Ar 4.46496 6.57383 2.20922
41 Ar 4.20815 6.44632 6.79814
42 Ar 4.65898 6.78373 11.0584
43 Ar 4.55862 11.0403 2.19985
44 Ar 4.40073 11.0362 6.69847
45 Ar 4.27786 11.0072 11.2228
46 Ar 8.8545 2.20059 2.20944
47 Ar 8.99504 2.36109 6.56877
48 Ar 8.81833 2.16869 11.0712
49 Ar 8.91219 6.76388 2.34986
50 Ar 8.80923 6.57125 6.44173
51 Ar 9.08404 6.69869 11.2201
52 Ar 8.9539 11.1154 2.13541
53 Ar 8.90101 11.1286 6.77053
54 Ar 8.91637 11.2415 11.154
55 Ar 2.32719 0.12194 2.26475
56 Ar 2.09578 -0.0893431 6.72117
57 Ar 1.99559 -0.0157551 11.3048
58 Ar 2.33147 4.41708 2.08082
59 Ar 2.18375 4.48994 6.92514
60 Ar 2.50081 4.30091 11.1678
61 Ar 2.16086 8.86269 2.02986
62 Ar 2.31033 8.88171 6.75178
63 Ar 2.07519 9.03046 11.2693
64 Ar 6.75899 -0.0525839 2.29134
65 Ar 6.56065 -0.0188379 6.53
66 Ar 6.52957 -0.219343 10.9636
67 Ar 6.75288 4.3619 2.21629
68 Ar 6.65507 4.40204 6.64808
69 Ar 6.8044 4.59916 11.043
70 Ar 6.72003 9.02471 2.14628
71 Ar 6.38857 8.83621 6.74101
72 Ar 6.91659 8.87787 11.1737
73 Ar 11.2741 0.0875662 2.19199
74 Ar 11.0896 0.00496675 6.4604
75 Ar 11.1342 0.12182 10.9638
76 Ar 11.0966 4.44912 2.26016
77 Ar 11.0736 4.51616 6.79068
78 Ar 11.1438 4.34883 11.1818
79 Ar 11.2981 8.83795 2.33369
80 Ar 11.1916 8.76093 6.63706
81 Ar 11.1782 9.07373 11.0722
82 Ar 2.2539 2.30687 0.0463543
83 Ar 2.28499 2.25621 4.56848
84 Ar 2.25396 2.21212 8.9624
85 Ar 2.19933 6.70715 -0.238118
86 Ar 2.23287 6.50818 4.32544
87 Ar 2.35626 6.67348 9.06431
88 Ar 2.08617 11.1125 0.115365
89 Ar 2.2378 11.1438 4.43501
90 Ar 2.17804 11.1681 8.78092
91 Ar 6.63031 2.23731 -0.156362
92 Ar 6.73659 2.11973 4.49737
93 Ar 6.65083 2.29542 8.80323
94 Ar 6.85358 6.73562 0.188634
95 Ar 6.63603 6.66471 4.39701
96 Ar 6.68411 6.64922 8.86306
97 Ar 6.66951 11.0983 -0.202242
98 Ar 6.71567 11.0749 4.44536
99 Ar 6.58713 11.1724 8.79464
100 Ar 10.9311 2.33036 -0.0207554
101 Ar 11.234 2.25851 4.34673
102 Ar 10.9614 2.23053 8.94769
103 Ar 11.0873 6.69197 0.195285
104 Ar 11.202 6.69207 4.62652
105 Ar 11.1619 6.80269 8.90344
106 Ar 11.2697 11.2984 -0.0696859
107 Ar 11.0249 10.9404 4.50176
108 Ar 11.121 11.1737 8.90335
ITEM: TIMESTEP
6020
ITEM: NUMBER OF ATOMS
108
ITEM: BOX BOUNDS pp pp pp
0.0000000000000000e+00 1.3349999400000000e+01
0.0000000000000000e+00 1.3349999400000000e+01
0.0000000000000000e+00 1.3349999400000000e+01
ITEM: ATOMS id element xu yu zu
1 Ar 0.00945077 0.107428 0.286626
2 Ar -0.16765 -0.0340937 4.41559
3 Ar -0.0270526 0.285607 8.69379
4 Ar 0.0119499 4.4588 -0.0336255
5 Ar -0.0952888 4.56163 4.31744
6 Ar -0.0118247 4.53155 9.08392
7 Ar -0.215733 8.975 -0.0203832
8 Ar 0.121621 8.64589 4.41127
9 Ar -0.0597461 8.94028 8.96019
10 Ar 4.49813 -0.194051 0.124522
11 Ar 4.63152 -0.205725 4.46924
12 Ar 4.28378 -0.189697 8.99551
13 Ar 4.59178 4.40205 -0.0579186
14 Ar 4.57661 4.28243 4.37818
15 Ar 4.48675 4.52113 8.92136
16 Ar 4.43367 8.9562 0.038574
17 Ar 4.34291 8.81142 4.45906
18 Ar 4.47893 8.89493 8.95964
19 Ar 8.84962 0.00388215 -0.243025
20 Ar 8.90359 -0.119525 4.40875
21 Ar 8.92688 0.0859122 8.7418
22 Ar 8.87154 4.37859 -0.11856
23 Ar 9.01251 4.39339 4.33517
24 Ar 8.96367 4.44364 8.88822
25 Ar 9.21115 8.97522 0.0540415
26 Ar 8.85117 8.96344 4.59191
27 Ar 8.79469 9.05961 8.89696
28 Ar 0.100608 2.27328 2.34761
29 Ar -0.0309952 2.26592 6.65615
30 Ar -0.0958414 2.28269 11.0896
31 Ar 0.0158618 6.67984 2.1558
32 Ar -0.0437418 6.65742 6.80072
33 Ar -0.2182 6.82429 11.2245
34 Ar -0.0368046 11.1945 2.17925
35 Ar -0.110233 10.97 6.7943
36 Ar -0.131996 11.439 11.0945
37 Ar 4.52589 2.09686 2.20073
38 Ar 4.41223 2.23736 6.8361
39 Ar 4.56191 2.14443 11.1077
40 Ar 4.47252 6.56397 2.21296
41 Ar 4.20472 6.44399 6.78779
42 Ar 4.66876 6.79884 11.0522
43 Ar 4.56707 11.0393 2.21557
44 Ar 4.4152 11.0502 6.70271
45 Ar 4.27358 11.0088 11.2094
46 Ar 8.86878 2.20318 2.20234
47 Ar 8.98769 2.35515 6.57485
48 Ar 8.81844 2.16699 11.0892
49 Ar 8.89812 6.76433 2.34353
50 Ar 8.799 6.58121 6.4306
51 Ar 9.07163 6.72357 11.2165
52 Ar 8.95031 11.125 2.12189
53 Ar 8.90748 11.1402 6.78281
54 Ar 8.9315 11.2395 11.152
55 Ar 2.32777 0.113124 2.26309
56 Ar 2.08899 -0.0913012 6.73039
57 Ar 2.00208 -0.0128111 11.3091
58 Ar 2.31006 4.40801 2.09256
59 Ar 2.18949 4.5067 6.92816
60 Ar 2.50218 4.30093 11.1768
61 Ar 2.1469 8.85937 2.02823
62 Ar 2.31315 8.87479 6.74568
63 Ar 2.08033 9.03395 11.2628
64 Ar 6.77144 -0.062238 2.2763
65 Ar 6.55206 -0.0267099 6.52218
66 Ar 6.52404 -0.217237 10.9665
67 Ar 6.75128 4.33562 2.21656
68 Ar 6.65859 4.40068 6.65757
69 Ar 6.81636 4.59553 11.0348
70 Ar 6.73424 9.04534 2.13079
71 Ar 6.38961 8.83654 6.75221
72 Ar 6.89423 8.88565 11.1485
73 Ar 11.2735 0.0989111 2.20474
74 Ar 11.0695 0.00633535 6.4575
75 Ar 11.1577 0.121756 10.965
76 Ar 11.0896 4.45033 2.2704
77 Ar 11.085 4.51963 6.78727
78 Ar 11.1501 4.36379 11.1785
79 Ar 11.2878 8.84753 2.3396
80 Ar 11.1931 8.74482 6.64752
81 Ar 11.1664 9.05489 11.0445
82 Ar 2.23917 2.31714 0.0178885
83 Ar 2.29106 2.26542 4.57567
84 Ar 2.2403 2.20355 8.9622
85 Ar 2.1977 6.70861 -0.233155
86 Ar 2.20809 6.51466 4.31621
87 Ar 2.35692 6.68078 9.06126
88 Ar 2.07886 11.1145 0.121064
89 Ar 2.24575 11.151 4.43471
90 Ar 2.17197 11.1726 8.77353
91 Ar 6.62066 2.22539 -0.147199
92 Ar 6.73762 2.1065 4.50722
93 Ar 6.65142 2.30228 8.80808
94 Ar 6.87126 6.74483 0.203154
95 Ar 6.63526 6.65742 4.44235
96 Ar 6.66071 6.63991 8.86915
97 Ar 6.6756 11.1036 -0.18006
98 Ar 6.72528 11.0836 4.45359
99 Ar 6.59728 11.1861 8.7671
100 Ar 10.928 2.34176 -0.045861
101 Ar 11.2344 2.24043 4.35456
102 Ar 10.9546 2.22932 8.95057
103 Ar 11.0767 6.69693 0.183463
104 Ar 11.1987 6.69205 4.61639
105 Ar 11.1576 6.78164 8.90973
106 Ar 11.2816 11.2925 -0.0542098
107 Ar 11.0214 10.9416 4.49059
108 Ar 11.1085 11.1571 8.91515
ITEM: TIMESTEP
6030
ITEM: NUMBER OF ATOMS
108
ITEM: BOX BOUNDS pp pp pp
0.0000000000000000e+00 1.3349999400000000e+01
0.0000000000000000e+00 1.3349999400000000e+01
0.0000000000000000e+00 1.3349999400000000e+01
ITEM: ATOMS id element xu yu zu
1 Ar 0.0075226 0.109973 0.297369
2 Ar -0.176759 -0.00822323 4.42494
3 Ar -0.0349432 0.297075 8.72505
4 Ar 0.0165165 4.46999 -0.0262858
5 Ar -0.0809266 4.55251 4.31272
6 Ar -0.000828312 4.53933 9.08576
7 Ar -0.1965 8.93558 -0.022867
8 Ar 0.116925 8.65165 4.40854
9 Ar -0.0771738 8.93622 8.95008
10 Ar 4.52916 -0.210159 0.137851
11 Ar 4.64527 -0.178187 4.47735
12 Ar 4.28317 -0.212478 8.98416
13 Ar 4.60975 4.38994 -0.0644963
14 Ar 4.59238 4.29813 4.37512
15 Ar 4.47126 4.52663 8.93477
16 Ar 4.45 8.95015 0.0287292
17 Ar 4.33261 8.82356 4.45254
18 Ar 4.48008 8.91347 8.9681
19 Ar 8.85111 -0.00196418 -0.233791
20 Ar 8.90163 -0.099638 4.39516
21 Ar 8.90828 0.0561917 8.73888
22 Ar 8.87992 4.37929 -0.116092
23 Ar 9.0109 4.38436 4.30388
24 Ar 8.96596 4.46529 8.87295
25 Ar 9.18165 8.99093 0.0640697
26 Ar 8.86026 8.97767 4.58161
27 Ar 8.79807 9.05158 8.91361
28 Ar 0.104003 2.25593 2.31812
29 Ar -0.0443251 2.24914 6.64449
30 Ar -0.0961963 2.26703 11.0705
31 Ar 0.00528862 6.66188 2.15548
32 Ar -0.033155 6.65147 6.8215
33 Ar -0.220945 6.80846 11.2213
34 Ar -0.00654639 11.2036 2.18328
35 Ar -0.0966821 10.9716 6.80396
36 Ar -0.130154 11.4306 11.1152
37 Ar 4.53945 2.08271 2.20756
38 Ar 4.40433 2.23922 6.83193
39 Ar 4.55903 2.14494 11.0916
40 Ar 4.48027 6.5557 2.21571
41 Ar 4.20601 6.44583 6.77315
42 Ar 4.67678 6.81322 11.0501
43 Ar 4.57313 11.0388 2.23246
44 Ar 4.42904 11.0656 6.70566
45 Ar 4.27024 11.0115 11.1946
46 Ar 8.88358 2.20414 2.19481
47 Ar 8.97942 2.34704 6.58106
48 Ar 8.81727 2.16578 11.1057
49 Ar 8.88511 6.76446 2.33804
50 Ar 8.78924 6.59249 6.42392
51 Ar 9.05867 6.74864 11.2115
52 Ar 8.94801 11.1354 2.1086
53 Ar 8.91349 11.1515 6.79319
54 Ar 8.9474 11.2361 11.1476
55 Ar 2.32752 0.102392 2.26296
56 Ar 2.08433 -0.0915467 6.73599
57 Ar 2.0122 -0.00816697 11.312
58 Ar 2.28843 4.39967 2.10564
59 Ar 2.19223 4.52045 6.92799
60 Ar 2.50006 4.30363 11.1848
61 Ar 2.13379 8.85558 2.02925
62 Ar 2.31371 8.86671 6.73889
63 Ar 2.08499 9.03683 11.2536
64 Ar 6.78374 -0.0716974 2.25866
65 Ar 6.54634 -0.0341586 6.5194
66 Ar 6.51988 -0.212011 10.9703
67 Ar 6.74936 4.31025 2.21666
68 Ar 6.66233 4.40022 6.66627
69 Ar 6.82693 4.59052 11.0279
70 Ar 6.74886 9.06396 2.11684
71 Ar 6.3942 8.83575 6.76128
72 Ar 6.86997 8.89367 11.1238
73 Ar 11.267 0.109589 2.21782
74 Ar 11.0497 0.00763641 6.45781
75 Ar 11.1801 0.121434 10.9687
76 Ar 11.083 4.452 2.27804
77 Ar 11.0984 4.52219 6.78264
78 Ar 11.1548 4.38174 11.1742
79 Ar 11.275 8.8583 2.34594
80 Ar 11.1923 8.73158 6.65962
81 Ar 11.1524 9.03593 11.0175
82 Ar 2.22495 2.32472 -0.0113373
83 Ar 2.29673 2.27417 4.58261
84 Ar 2.22679 2.19501 8.96248
85 Ar 2.19717 6.70874 -0.226594
86 Ar 2.18487 6.52106 4.30899
87 Ar 2.3536 6.68949 9.06044
88 Ar 2.0728 11.118 0.1257
89 Ar 2.25216 11.1573 4.43392
90 Ar 2.16418 11.175 8.76995
91 Ar 6.61238 2.21152 -0.136241
92 Ar 6.73826 2.09491 4.51609
93 Ar 6.65304 2.30689 8.81429
94 Ar 6.88712 6.75368 0.214719
95 Ar 6.63297 6.65043 4.48708
96 Ar 6.63998 6.63177 8.87358
97 Ar 6.68273 11.1084 -0.155452
98 Ar 6.73504 11.0901 4.46255
99 Ar 6.60821 11.1988 8.7409
100 Ar 10.9286 2.34989 -0.0694342
101 Ar 11.2326 2.22298 4.36404
102 Ar 10.9506 2.22959 8.95088
103 Ar 11.0664 6.69973 0.169899
104 Ar 11.1936 6.69097 4.60258
105 Ar 11.1504 6.75924 8.91663
106 Ar 11.2901 11.287 -0.0378766
107 Ar 11.0206 10.9448 4.47881
108 Ar 11.0956 11.1417 8.92553
ITEM: TIMESTEP
6040
ITEM: NUMBER OF ATOMS
108
ITEM: BOX BOUNDS pp pp pp
0.0000000000000000e+00 1.3349999400000000e+01
0.0000000000000000e+00 1.3349999400000000e+01
0.0000000000000000e+00 1.3349999400000000e+01
ITEM: ATOMS id element xu yu zu
1 Ar 0.00651609 0.114342 0.302693
2 Ar -0.181133 0.0157526 4.43553
3 Ar -0.0445053 0.303794 8.75885
4 Ar 0.0205572 4.48081 -0.0189744
5 Ar -0.0646409 4.54171 4.31119
6 Ar 0.010746 4.54645 9.08677
7 Ar -0.17578 8.89652 -0.0251901
8 Ar 0.112949 8.66161 4.4076
9 Ar -0.091629 8.93165 8.94044
10 Ar 4.55867 -0.223656 0.148516
11 Ar 4.65341 -0.148091 4.48349
12 Ar 4.28331 -0.231675 8.97191
13 Ar 4.62766 4.38016 -0.0703407
14 Ar 4.60631 4.31486 4.3732
15 Ar 4.45673 4.52941 8.94985
16 Ar 4.46689 8.94194 0.0183704
17 Ar 4.32304 8.83538 4.44467
18 Ar 4.47981 8.93295 8.97738
19 Ar 8.85308 -0.00715276 -0.220602
20 Ar 8.90068 -0.0787679 4.38168
21 Ar 8.88793 0.02637 8.73723
22 Ar 8.88726 4.38235 -0.111407
23 Ar 9.0073 4.37593 4.27486
24 Ar 8.96712 4.48869 8.85827
25 Ar 9.15021 9.00695 0.0729787
26 Ar 8.86829 8.99039 4.57009
27 Ar 8.80283 9.04041 8.9286
28 Ar 0.107273 2.24018 2.28776
29 Ar -0.0576459 2.23538 6.63171
30 Ar -0.0944635 2.25099 11.0534
31 Ar -0.00473335 6.64278 2.15396
32 Ar -0.0193052 6.64504 6.84145
33 Ar -0.22136 6.79042 11.2173
34 Ar 0.0235976 11.2104 2.1913
35 Ar -0.0828722 10.9751 6.80996
36 Ar -0.125934 11.4185 11.1346
37 Ar 4.5531 2.06988 2.21466
38 Ar 4.39597 2.23983 6.82607
39 Ar 4.5552 2.14426 11.0748
40 Ar 4.48815 6.54907 2.21749
41 Ar 4.21202 6.45184 6.75453
42 Ar 4.68272 6.82647 11.0521
43 Ar 4.57664 11.0386 2.25038
44 Ar 4.44177 11.0819 6.70701
45 Ar 4.26797 11.0155 11.1792
46 Ar 8.89875 2.2033 2.18673
47 Ar 8.97037 2.33712 6.58735
48 Ar 8.81489 2.16494 11.1203
49 Ar 8.87333 6.76426 2.33377
50 Ar 8.78049 6.60482 6.42181
51 Ar 9.04505 6.77349 11.2052
52 Ar 8.94727 11.1469 2.09597
53 Ar 8.91916 11.1618 6.80114
54 Ar 8.96362 11.2313 11.1412
55 Ar 2.32673 0.0901194 2.26428
56 Ar 2.08163 -0.0899705 6.73796
57 Ar 2.02584 -0.00212554 11.3136
58 Ar 2.26724 4.39195 2.11973
59 Ar 2.19182 4.53078 6.92462
60 Ar 2.49445 4.30919 11.1915
61 Ar 2.12192 8.85131 2.03279
62 Ar 2.31215 8.85779 6.73153
63 Ar 2.08905 9.03898 11.242
64 Ar 6.7958 -0.0807301 2.23888
65 Ar 6.54388 -0.040844 6.52196
66 Ar 6.51723 -0.204048 10.9749
67 Ar 6.74715 4.28618 2.21653
68 Ar 6.66619 4.40049 6.67418
69 Ar 6.83608 4.58419 11.0225
70 Ar 6.76361 9.08023 2.10499
71 Ar 6.40222 8.83394 6.76812
72 Ar 6.84409 8.90236 11.1001
73 Ar 11.2548 0.119238 2.2308
74 Ar 11.0306 0.00863883 6.46156
75 Ar 11.2006 0.120723 10.9749
76 Ar 11.0772 4.45398 2.28278
77 Ar 11.1135 4.52373 6.77661
78 Ar 11.158 4.40235 11.1687
79 Ar 11.2599 8.87003 2.35216
80 Ar 11.1891 8.72133 6.67302
81 Ar 11.1368 9.01699 10.9924
82 Ar 2.21159 2.32946 -0.0406335
83 Ar 2.30192 2.28239 4.58907
84 Ar 2.21379 2.18676 8.96307
85 Ar 2.19795 6.70759 -0.218544
86 Ar 2.16369 6.52743 4.30382
87 Ar 2.34655 6.6997 9.06187
88 Ar 2.06841 11.1228 0.128964
89 Ar 2.25703 11.1629 4.43285
90 Ar 2.15463 11.175 8.77029
91 Ar 6.60565 2.19575 -0.123817
92 Ar 6.7386 2.0853 4.52376
93 Ar 6.65565 2.30918 8.82172
94 Ar 6.90078 6.76192 0.222956
95 Ar 6.62895 6.64401 4.53023
96 Ar 6.62217 6.62496 8.87605
97 Ar 6.69093 11.1126 -0.129377
98 Ar 6.74485 11.0944 4.47208
99 Ar 6.61992 11.2104 8.71668
100 Ar 10.9332 2.35461 -0.0911319
101 Ar 11.2283 2.20694 4.37486
102 Ar 10.9489 2.23129 8.94867
103 Ar 11.0562 6.70059 0.154896
104 Ar 11.187 6.68878 4.58549
105 Ar 11.1403 6.73568 8.92396
106 Ar 11.2954 11.2816 -0.0207533
107 Ar 11.0224 10.9501 4.46678
108 Ar 11.083 11.1279 8.93423
ITEM: TIMESTEP
6050
ITEM: NUMBER OF ATOMS
108
ITEM: BOX BOUNDS pp pp pp
0.0000000000000000e+00 1.3349999400000000e+01
0.0000000000000000e+00 1.3349999400000000e+01
0.0000000000000000e+00 1.3349999400000000e+01
ITEM: ATOMS id element xu yu zu
1 Ar 0.00623679 0.120166 0.30235
2 Ar -0.180572 0.0373078 4.44717
3 Ar -0.055494 0.305439 8.79415
4 Ar 0.0238413 4.49097 -0.011982
5 Ar -0.0469451 4.52906 4.31286
6 Ar 0.0228257 4.55256 9.087
7 Ar -0.154189 8.85848 -0.0273067
8 Ar 0.109467 8.67558 4.40848
9 Ar -0.102902 8.92657 8.9315
10 Ar 4.58597 -0.234399 0.156362
11 Ar 4.65579 -0.115974 4.48739
12 Ar 4.28425 -0.246824 8.95895
13 Ar 4.64513 4.37285 -0.075376
14 Ar 4.61815 4.33221 4.37242
15 Ar 4.44323 4.52956 8.96613
16 Ar 4.48397 8.9319 0.00781614
17 Ar 4.31445 8.84664 4.43559
18 Ar 4.47805 8.95314 8.98697
19 Ar 8.85576 -0.0116809 -0.203922
20 Ar 8.90069 -0.0573069 4.36852
21 Ar 8.86634 -0.00262039 8.73732
22 Ar 8.89336 4.38782 -0.104641
23 Ar 9.00159 4.3682 4.24899
24 Ar 8.96716 4.51338 8.84434
25 Ar 9.11751 9.02293 0.0803171
26 Ar 8.87513 9.00138 4.55753
27 Ar 8.80869 9.02625 8.94143
28 Ar 0.110177 2.22648 2.25726
29 Ar -0.0706912 2.22467 6.61835
30 Ar -0.0907706 2.23541 11.039
31 Ar -0.0144024 6.62306 2.1514
32 Ar -0.00267018 6.63842 6.86006
33 Ar -0.219282 6.77058 11.2124
34 Ar 0.0529395 11.215 2.20335
35 Ar -0.0693245 10.9806 6.81216
36 Ar -0.119325 11.4028 11.1526
37 Ar 4.56635 2.05854 2.22192
38 Ar 4.38736 2.23932 6.81888
39 Ar 4.55047 2.1424 11.0577
40 Ar 4.49613 6.54412 2.21832
41 Ar 4.22252 6.4618 6.73249
42 Ar 4.68632 6.83822 11.0585
43 Ar 4.5775 11.0386 2.26919
44 Ar 4.45293 11.0985 6.70647
45 Ar 4.26692 11.0208 11.1635
46 Ar 8.91409 2.20062 2.17801
47 Ar 8.96069 2.32573 6.59372
48 Ar 8.81139 2.1644 11.1325
49 Ar 8.86291 6.76376 2.33106
50 Ar 8.77335 6.618 6.42429
51 Ar 9.03056 6.79772 11.1977
52 Ar 8.94834 11.1595 2.08444
53 Ar 8.92462 11.1707 6.80614
54 Ar 8.97968 11.2254 11.1333
55 Ar 2.32569 0.0767193 2.26698
56 Ar 2.08071 -0.0865282 6.73643
57 Ar 2.04281 0.00494625 11.3138
58 Ar 2.24713 4.38475 2.13452
59 Ar 2.1884 4.53745 6.91815
60 Ar 2.48545 4.31776 11.1969
61 Ar 2.11163 8.84656 2.0387
62 Ar 2.30866 8.84832 6.72376
63 Ar 2.09243 9.04029 11.2282
64 Ar 6.8075 -0.0891177 2.21758
65 Ar 6.54487 -0.0464153 6.52989
66 Ar 6.51618 -0.193774 10.9803
67 Ar 6.7447 4.26375 2.21609
68 Ar 6.67006 4.40126 6.68135
69 Ar 6.84379 4.57666 11.0186
70 Ar 6.77816 9.09389 2.0958
71 Ar 6.41344 8.83127 6.77272
72 Ar 6.81691 8.91214 11.0779
73 Ar 11.2373 0.127505 2.24327
74 Ar 11.0125 0.00914266 6.46887
75 Ar 11.2186 0.119471 10.9835
76 Ar 11.0726 4.45612 2.28442
77 Ar 11.13 4.52416 6.76903
78 Ar 11.1596 4.42519 11.1621
79 Ar 11.2432 8.88243 2.35773
80 Ar 11.1835 8.71408 6.68732
81 Ar 11.1199 8.99816 10.97
82 Ar 2.19946 2.3313 -0.0693206
83 Ar 2.30655 2.29004 4.59484
84 Ar 2.20163 2.17905 8.96378
85 Ar 2.20023 6.70518 -0.209116
86 Ar 2.14497 6.53381 4.30074
87 Ar 2.33619 6.71137 9.06545
88 Ar 2.06608 11.1286 0.130586
89 Ar 2.26041 11.1679 4.43172
90 Ar 2.14337 11.1725 8.77455
91 Ar 6.60063 2.17822 -0.110289
92 Ar 6.73871 2.07799 4.5301
93 Ar 6.65921 2.30914 8.83017
94 Ar 6.91189 6.76929 0.227552
95 Ar 6.62309 6.63844 4.57086
96 Ar 6.60739 6.6196 8.87639
97 Ar 6.70018 11.1159 -0.102816
98 Ar 6.75455 11.0966 4.482
99 Ar 6.63234 11.2206 8.69509
100 Ar 10.942 2.3559 -0.110707
101 Ar 11.2217 2.19305 4.3867
102 Ar 10.949 2.23436 8.94411
103 Ar 11.0459 6.69981 0.138756
104 Ar 11.1792 6.68552 4.56558
105 Ar 11.1275 6.7112 8.93146
106 Ar 11.2977 11.2758 -0.00291959
107 Ar 11.0272 10.9577 4.45489
108 Ar 11.071 11.116 8.94104
ITEM: TIMESTEP
6060
ITEM: NUMBER OF ATOMS
108
ITEM: BOX BOUNDS pp pp pp
0.0000000000000000e+00 1.3349999400000000e+01
0.0000000000000000e+00 1.3349999400000000e+01
0.0000000000000000e+00 1.3349999400000000e+01
ITEM: ATOMS id element xu yu zu
1 Ar 0.00641767 0.126929 0.296268
2 Ar -0.175052 0.0560208 4.45958
3 Ar -0.0675748 0.301758 8.82979
4 Ar 0.0261772 4.5002 -0.00559188
5 Ar -0.0283888 4.51448 4.31768
6 Ar 0.0353027 4.5573 9.08648
7 Ar -0.132305 8.82207 -0.0291729
8 Ar 0.106214 8.6933 4.41117
9 Ar -0.110912 8.92097 8.92349
10 Ar 4.61034 -0.242314 0.161286
11 Ar 4.65249 -0.0824291 4.48898
12 Ar 4.28601 -0.25758 8.94547
13 Ar 4.66181 4.36804 -0.0795885
14 Ar 4.62765 4.3498 4.37274
15 Ar 4.43075 4.52727 8.9831
16 Ar 4.5009 8.92045 -0.00261037
17 Ar 4.30709 8.85712 4.4255
18 Ar 4.47473 8.97374 8.99631
19 Ar 8.85934 -0.0155537 -0.184337
20 Ar 8.90157 -0.0356631 4.3559
21 Ar 8.84405 -0.0298682 8.73959
22 Ar 8.8981 4.39559 -0.0959669
23 Ar 8.99368 4.36125 4.22706
24 Ar 8.96609 4.53888 8.83123
25 Ar 9.08423 9.03849 0.085662
26 Ar 8.88075 9.0105 4.54413
27 Ar 8.81532 9.00933 8.95164
28 Ar 0.11247 2.21521 2.22735
29 Ar -0.0831952 2.2169 6.60508
30 Ar -0.0852887 2.22113 11.0275
31 Ar -0.0238899 6.60326 2.14804
32 Ar 0.0161606 6.6319 6.87684
33 Ar -0.214589 6.74938 11.2066
34 Ar 0.0808032 11.2175 2.21929
35 Ar -0.0565072 10.988 6.81051
36 Ar -0.11041 11.3834 11.169
37 Ar 4.5787 2.04882 2.22922
38 Ar 4.37878 2.23785 6.81073
39 Ar 4.54492 2.13942 11.0406
40 Ar 4.50414 6.54086 2.21824
41 Ar 4.23705 6.47532 6.70771
42 Ar 4.68736 6.84807 11.069
43 Ar 4.57571 11.0389 2.28863
44 Ar 4.46212 11.115 6.70381
45 Ar 4.26718 11.0277 11.1482
46 Ar 8.92941 2.19616 2.16855
47 Ar 8.95049 2.31326 6.60018
48 Ar 8.80694 2.16406 11.1421
49 Ar 8.85394 6.76295 2.33015
50 Ar 8.76835 6.63181 6.43133
51 Ar 9.01498 6.82091 11.1894
52 Ar 8.95141 11.1732 2.07452
53 Ar 8.92999 11.1776 6.80775
54 Ar 8.99513 11.2187 11.1245
55 Ar 2.32464 0.0626281 2.2709
56 Ar 2.08134 -0.081247 6.73171
57 Ar 2.06288 0.0126337 11.3126
58 Ar 2.22868 4.37794 2.14964
59 Ar 2.18235 4.54044 6.9087
60 Ar 2.4732 4.3294 11.2008
61 Ar 2.10325 8.84135 2.04678
62 Ar 2.30344 8.83861 6.71571
63 Ar 2.0951 9.04067 11.2124
64 Ar 6.81869 -0.0966563 2.19546
65 Ar 6.54937 -0.0505155 6.54293
66 Ar 6.51681 -0.181641 10.9863
67 Ar 6.74204 4.24326 2.21525
68 Ar 6.67383 4.40228 6.68784
69 Ar 6.85007 4.56804 11.0165
70 Ar 6.79213 9.1047 2.08976
71 Ar 6.42756 8.82802 6.77517
72 Ar 6.78883 8.92338 11.0573
73 Ar 11.2152 0.134074 2.25487
74 Ar 10.9957 0.00899088 6.47976
75 Ar 11.2335 0.117504 10.9945
76 Ar 11.0696 4.45824 2.28285
77 Ar 11.1475 4.52347 6.75979
78 Ar 11.1595 4.44967 11.1544
79 Ar 11.2251 8.8952 2.36211
80 Ar 11.1758 8.70971 6.70208
81 Ar 11.1023 8.97955 10.9511
82 Ar 2.18888 2.33029 -0.0967547
83 Ar 2.31055 2.29706 4.59965
84 Ar 2.19054 2.17208 8.96439
85 Ar 2.20418 6.70161 -0.198416
86 Ar 2.12901 6.54026 4.29974
87 Ar 2.32306 6.72443 9.07096
88 Ar 2.06612 11.1353 0.130364
89 Ar 2.26237 11.1724 4.4308
90 Ar 2.13052 11.1677 8.78258
91 Ar 6.59742 2.15913 -0.096043
92 Ar 6.73865 2.07324 4.53501
93 Ar 6.66365 2.30682 8.8394
94 Ar 6.92014 6.77558 0.228279
95 Ar 6.61536 6.63395 4.6081
96 Ar 6.59561 6.61576 8.87456
97 Ar 6.7104 11.1182 -0.0767388
98 Ar 6.76397 11.097 4.49216
99 Ar 6.6453 11.2289 8.67672
100 Ar 10.9549 2.35391 -0.128012
101 Ar 11.2126 2.18196 4.39922
102 Ar 10.9506 2.23871 8.93742
103 Ar 11.0355 6.69774 0.121774
104 Ar 11.1704 6.68128 4.5434
105 Ar 11.1126 6.68613 8.93881
106 Ar 11.2973 11.2694 0.0155178
107 Ar 11.0347 10.9678 4.44348
108 Ar 11.0603 11.1063 8.94576
ITEM: TIMESTEP
6070
ITEM: NUMBER OF ATOMS
108
ITEM: BOX BOUNDS pp pp pp
0.0000000000000000e+00 1.3349999400000000e+01
0.0000000000000000e+00 1.3349999400000000e+01
0.0000000000000000e+00 1.3349999400000000e+01
ITEM: ATOMS id element xu yu zu
1 Ar 0.00676151 0.134012 0.284538
2 Ar -0.164734 0.071599 4.47239
3 Ar -0.0803522 0.292582 8.8646
4 Ar 0.027422 4.50823 -7.41399e-05
5 Ar -0.00953226 4.49797 4.32552
6 Ar 0.0480309 4.56032 9.08527
7 Ar -0.110654 8.78783 -0.0307515
8 Ar 0.102907 8.71443 4.41561
9 Ar -0.11571 8.91488 8.91656
10 Ar 4.63115 -0.247406 0.163242
11 Ar 4.64383 -0.048091 4.48843
12 Ar 4.28855 -0.263728 8.93166
13 Ar 4.67736 4.36569 -0.0830162
14 Ar 4.6346 4.36722 4.37414
15 Ar 4.41927 4.52286 9.00018
16 Ar 4.51734 8.90803 -0.0125795
17 Ar 4.30115 8.86664 4.41462
18 Ar 4.46986 8.99438 9.00478
19 Ar 8.86404 -0.0187727 -0.162541
20 Ar 8.90316 -0.0142502 4.34407
21 Ar 8.82167 -0.0545291 8.74442
22 Ar 8.90144 4.40546 -0.0855901
23 Ar 8.98358 4.35517 4.20969
24 Ar 8.96389 4.56461 8.81904
25 Ar 9.05107 9.05327 0.0886346
26 Ar 8.88516 9.01763 4.5301
27 Ar 8.82235 8.98994 8.95879
28 Ar 0.113906 2.20663 2.19872
29 Ar -0.0948973 2.2119 6.59261
30 Ar -0.0782253 2.20897 11.0193
31 Ar -0.0333235 6.5839 2.1442
32 Ar 0.0365133 6.62584 6.89137
33 Ar -0.207204 6.72733 11.1997
34 Ar 0.106556 11.218 2.23878
35 Ar -0.0448209 10.9973 6.80506
36 Ar -0.0993728 11.3607 11.1838
37 Ar 4.5897 2.04085 2.23644
38 Ar 4.37048 2.2356 6.80197
39 Ar 4.53857 2.13545 11.0238
40 Ar 4.51211 6.53931 2.2173
41 Ar 4.25492 6.49191 6.68104
42 Ar 4.68574 6.85566 11.0834
43 Ar 4.57139 11.0394 2.30839
44 Ar 4.46903 11.1306 6.69882
45 Ar 4.26883 11.036 11.1339
46 Ar 8.94448 2.19008 2.15826
47 Ar 8.93988 2.30006 6.60678
48 Ar 8.80175 2.16384 11.149
49 Ar 8.84646 6.76185 2.33119
50 Ar 8.76597 6.64608 6.44275
51 Ar 8.99805 6.84265 11.1805
52 Ar 8.95664 11.1879 2.06668
53 Ar 8.93539 11.1818 6.80556
54 Ar 9.00951 11.2115 11.1152
55 Ar 2.32379 0.048297 2.27586
56 Ar 2.08333 -0.0742253 6.72417
57 Ar 2.08576 0.0204927 11.3101
58 Ar 2.21245 4.37143 2.16476
59 Ar 2.17426 4.53989 6.8965
60 Ar 2.4579 4.34406 11.2032
61 Ar 2.09703 8.83572 2.0568
62 Ar 2.29675 8.82898 6.70753
63 Ar 2.09707 9.04004 11.1951
64 Ar 6.82922 -0.103161 2.17331
65 Ar 6.5572 -0.0527915 6.56048
66 Ar 6.51918 -0.16811 10.993
67 Ar 6.73924 4.22495 2.21396
68 Ar 6.6774 4.40328 6.69374
69 Ar 6.85493 4.55851 11.0161
70 Ar 6.80513 9.11247 2.08735
71 Ar 6.44424 8.8245 6.77561
72 Ar 6.76033 8.9364 11.0387
73 Ar 11.1896 0.138684 2.26524
74 Ar 10.9805 0.00807933 6.49415
75 Ar 11.2448 0.114641 11.008
76 Ar 11.0685 4.46013 2.27811
77 Ar 11.1656 4.52167 6.74883
78 Ar 11.1577 4.47508 11.1459
79 Ar 11.2061 8.90803 2.36483
80 Ar 11.166 8.70802 6.71688
81 Ar 11.0847 8.96124 10.9363
82 Ar 2.18016 2.3266 -0.122347
83 Ar 2.31386 2.3034 4.60329
84 Ar 2.18073 2.166 8.96467
85 Ar 2.20996 6.69695 -0.186535
86 Ar 2.11604 6.54688 4.30075
87 Ar 2.30779 6.73867 9.0781
88 Ar 2.06876 11.1424 0.128191
89 Ar 2.26302 11.1764 4.43037
90 Ar 2.11628 11.1606 8.79412
91 Ar 6.59605 2.13875 -0.0814741
92 Ar 6.73847 2.07122 4.53844
93 Ar 6.66887 2.30234 8.84916
94 Ar 6.92532 6.78061 0.225019
95 Ar 6.6059 6.63075 4.64117
96 Ar 6.58667 6.6135 8.87066
97 Ar 6.72143 11.1195 -0.052055
98 Ar 6.77289 11.0959 4.50237
99 Ar 6.65857 11.2351 8.66213
100 Ar 10.9718 2.34893 -0.142988
101 Ar 11.2013 2.17416 4.41209
102 Ar 10.9531 2.24423 8.92887
103 Ar 11.0249 6.69479 0.104229
104 Ar 11.161 6.67619 4.51954
105 Ar 11.0959 6.66086 8.94569
106 Ar 11.2948 11.2621 0.034414
107 Ar 11.0451 10.9805 4.43289
108 Ar 11.0512 11.099 8.94823
ITEM: TIMESTEP
6080
ITEM: NUMBER OF ATOMS
108
ITEM: BOX BOUNDS pp pp pp
0.0000000000000000e+00 1.3349999400000000e+01
0.0000000000000000e+00 1.3349999400000000e+01
0.0000000000000000e+00 1.3349999400000000e+01
ITEM: ATOMS id element xu yu zu
1 Ar 0.00698419 0.140742 0.267408
2 Ar -0.149966 0.0838953 4.48521
3 Ar -0.093401 0.277834 8.89744
4 Ar 0.0274872 4.51479 0.0043196
5 Ar 0.00907788 4.47961 4.33619
6 Ar 0.0608268 4.5613 9.08338
7 Ar -0.0896943 8.75623 -0.0320146
8 Ar 0.0992565 8.7385 4.42169
9 Ar -0.117471 8.90837 8.91083
10 Ar 4.64783 -0.249757 0.162243
11 Ar 4.63032 -0.0136182 4.48606
12 Ar 4.29183 -0.26519 8.91768
13 Ar 4.69149 4.36567 -0.0857356
14 Ar 4.63883 4.38406 4.37654
15 Ar 4.40876 4.51669 9.01681
16 Ar 4.533 8.89515 -0.0217544
17 Ar 4.29677 8.87499 4.4032
18 Ar 4.46347 9.01468 9.01179
19 Ar 8.87006 -0.0213307 -0.139309
20 Ar 8.90525 0.00652386 4.33335
21 Ar 8.7998 -0.0758714 8.75211
22 Ar 8.90343 4.41707 -0.0737482
23 Ar 8.97136 4.35001 4.19729
24 Ar 8.9605 4.58993 8.80778
25 Ar 9.01869 9.0669 0.08892
26 Ar 8.88846 9.02269 4.51566
27 Ar 8.82939 8.96844 8.96253
28 Ar 0.114257 2.20088 2.17201
29 Ar -0.10555 2.20945 6.58166
30 Ar -0.0698187 2.19962 11.0148
31 Ar -0.0427755 6.5655 2.14025
32 Ar 0.0576608 6.62056 6.90329
33 Ar -0.197094 6.70497 11.192
34 Ar 0.129639 11.2167 2.26135
35 Ar -0.0345859 11.0083 6.79595
36 Ar -0.086499 11.3349 11.1971
37 Ar 4.59894 2.03473 2.2434
38 Ar 4.36276 2.23277 6.793
39 Ar 4.53147 2.13068 11.0076