ITEM: TIMESTEP
42000
ITEM: NUMBER OF ATOMS
108
ITEM: BOX BOUNDS pp pp pp
0.0000000000000000e+00 1.3349999400000000e+01
0.0000000000000000e+00 1.3349999400000000e+01
0.0000000000000000e+00 1.3349999400000000e+01
ITEM: ATOMS id element xu yu zu
1 Ar -0.0157625 -0.127907 0.163424
2 Ar 0.105707 0.143148 4.30539
3 Ar 0.0703984 -0.105426 8.8801
4 Ar -0.109147 4.41312 -0.140498
5 Ar -0.00860445 4.36935 4.65902
6 Ar 0.155879 4.27062 8.87423
7 Ar -0.0596363 8.89716 0.0998658
8 Ar 0.0273743 8.97436 4.45933
9 Ar -0.0682295 9.03979 8.90728
10 Ar 4.5068 -0.0158851 -0.0936628
11 Ar 4.37024 0.24078 4.33985
12 Ar 4.48597 -0.14333 8.89551
13 Ar 4.33231 4.49803 -0.104102
14 Ar 4.42408 4.4983 4.35669
15 Ar 4.35878 4.417 8.97968
16 Ar 4.48845 8.96716 0.0762541
17 Ar 4.45292 8.89278 4.50052
18 Ar 4.32983 9.01819 8.85918
19 Ar 8.89444 -0.0162049 0.0776558
20 Ar 8.85852 0.11573 4.47603
21 Ar 8.95107 0.0799319 9.01505
22 Ar 8.72437 4.32043 -0.0287882
23 Ar 8.77649 4.65124 4.44597
24 Ar 9.01399 4.45476 8.72924
25 Ar 8.95193 8.9936 -0.0271782
26 Ar 8.9333 8.94977 4.29103
27 Ar 8.7637 8.72305 8.90742
28 Ar -0.0859758 2.15022 2.23414
29 Ar 0.11451 2.04885 6.66027
30 Ar 0.0786389 2.11541 11.2386
31 Ar -0.119555 6.5934 2.27937
32 Ar 0.0662365 6.57021 6.72666
33 Ar -0.226104 6.72244 11.1635
34 Ar 0.172789 10.9603 2.38817
35 Ar 0.0373909 11.2033 6.88038
36 Ar -0.0486548 11.0326 11.1656
37 Ar 4.49031 2.24525 2.01002
38 Ar 4.55251 2.18146 6.58065
39 Ar 4.34273 2.21125 11.0781
40 Ar 4.31645 6.77565 2.27549
41 Ar 4.28166 6.75626 6.74147
42 Ar 4.38026 6.96472 11.1082
43 Ar 4.34157 11.204 2.38736
44 Ar 4.47822 10.9663 6.55214
45 Ar 4.54626 11.0635 11.1764
46 Ar 8.97257 2.30153 2.2242
47 Ar 8.88053 2.1582 6.48774
48 Ar 8.93441 2.1565 11.187
49 Ar 9.00121 6.76821 2.17711
50 Ar 8.92117 6.61697 6.85815
51 Ar 8.95088 6.72859 11.2576
52 Ar 9.03246 11.0827 2.26462
53 Ar 8.80145 11.2143 6.65004
54 Ar 9.10442 11.2236 11.1314
55 Ar 2.16683 0.116506 2.1086
56 Ar 2.21799 -0.0594046 6.44484
57 Ar 2.3776 -0.0437882 11.1311
58 Ar 2.26618 4.51414 2.05266
59 Ar 2.31681 4.3862 6.70686
60 Ar 2.24309 4.39135 11.2473
61 Ar 2.12169 8.92569 2.20037
62 Ar 2.27092 8.91563 6.74177
63 Ar 2.22582 9.04612 11.1681
64 Ar 6.64266 -0.120719 2.13835
65 Ar 6.63738 -0.0361481 6.8599
66 Ar 6.74286 -0.016256 11.1237
67 Ar 6.62295 4.60047 2.25201
68 Ar 6.49806 4.47036 6.74883
69 Ar 6.7055 4.6466 10.9129
70 Ar 6.91287 9.01062 2.08423
71 Ar 6.68793 8.81087 6.69512
72 Ar 6.65621 8.92751 11.0864
73 Ar 11.2895 -0.0140291 2.00865
74 Ar 11.0791 0.000338404 6.85643
75 Ar 11.3714 -0.103841 11.2416
76 Ar 11.1127 4.50781 2.21254
77 Ar 11.2093 4.2973 6.7172
78 Ar 11.1284 4.34966 11.1364
79 Ar 11.1205 8.75128 2.31701
80 Ar 11.3422 8.83542 6.60936
81 Ar 11.0713 8.91724 11.0636
82 Ar 2.0417 2.23603 0.106373
83 Ar 2.23852 2.36391 4.33395
84 Ar 2.22321 1.90569 8.83578
85 Ar 2.05558 6.77151 0.0137545
86 Ar 2.09814 6.75509 4.40596
87 Ar 2.06075 6.7772 9.14618
88 Ar 2.16277 10.9975 0.102956
89 Ar 2.30137 11.2118 4.53249
90 Ar 2.33668 11.0222 8.72047
91 Ar 6.53845 2.34541 -0.134116
92 Ar 6.72485 2.21749 4.32812
93 Ar 6.65923 2.37189 8.91368
94 Ar 6.63609 6.64623 -0.143462
95 Ar 6.57114 6.69508 4.43522
96 Ar 6.44172 6.73632 8.88496
97 Ar 6.69361 11.0364 -0.0827741
98 Ar 6.65319 11.245 4.45335
99 Ar 6.82405 11.0805 8.86129
100 Ar 11.1259 2.25463 0.0957169
101 Ar 11.2335 2.297 4.48843
102 Ar 11.2318 2.26364 8.78149
103 Ar 11.0861 6.58064 0.086644
104 Ar 11.1164 6.53478 4.49359
105 Ar 11.1931 6.59327 8.94637
106 Ar 11.3047 10.9922 0.117131
107 Ar 11.0816 11.1793 4.47208
108 Ar 11.0446 11.0768 8.89954
ITEM: TIMESTEP
42010
ITEM: NUMBER OF ATOMS
108
ITEM: BOX BOUNDS pp pp pp
0.0000000000000000e+00 1.3349999400000000e+01
0.0000000000000000e+00 1.3349999400000000e+01
0.0000000000000000e+00 1.3349999400000000e+01
ITEM: ATOMS id element xu yu zu
1 Ar 0.000678441 -0.126039 0.1494
2 Ar 0.112652 0.134362 4.30488
3 Ar 0.0435992 -0.112362 8.8917
4 Ar -0.115119 4.39364 -0.131339
5 Ar -0.0105973 4.37054 4.64038
6 Ar 0.151468 4.27404 8.84499
7 Ar -0.0655095 8.89191 0.105889
8 Ar 0.0533542 8.97627 4.44283
9 Ar -0.0776684 9.02576 8.92264
10 Ar 4.52487 -0.0189287 -0.0961934
11 Ar 4.38144 0.233871 4.33868
12 Ar 4.48883 -0.138434 8.90492
13 Ar 4.34131 4.49026 -0.102456
14 Ar 4.44646 4.49545 4.37438
15 Ar 4.36717 4.38932 8.99332
16 Ar 4.50673 8.97375 0.0943409
17 Ar 4.46359 8.87609 4.50557
18 Ar 4.32554 9.01929 8.86533
19 Ar 8.86734 -0.0151127 0.055856
20 Ar 8.85934 0.107037 4.46677
21 Ar 8.95592 0.0872822 9.00353
22 Ar 8.73185 4.33706 -0.0152673
23 Ar 8.77564 4.63912 4.45566
24 Ar 9.03024 4.46128 8.74468
25 Ar 8.95168 9.02968 -0.0199416
26 Ar 8.93115 8.96267 4.30432
27 Ar 8.78014 8.71972 8.93121
28 Ar -0.0760458 2.14956 2.24472
29 Ar 0.126736 2.044 6.64132
30 Ar 0.0808934 2.12703 11.2371
31 Ar -0.125988 6.58634 2.26136
32 Ar 0.0505837 6.57062 6.73177
33 Ar -0.23536 6.71063 11.1709
34 Ar 0.184923 10.9623 2.37825
35 Ar 0.0257727 11.1974 6.89055
36 Ar -0.0630295 11.0283 11.165
37 Ar 4.47738 2.24394 2.0276
38 Ar 4.5432 2.17574 6.5963
39 Ar 4.33668 2.21246 11.049
40 Ar 4.32325 6.77014 2.25628
41 Ar 4.26743 6.78047 6.72964
42 Ar 4.38533 6.98362 11.1176
43 Ar 4.34078 11.2235 2.39279
44 Ar 4.46814 10.9689 6.55289
45 Ar 4.56969 11.0533 11.1725
46 Ar 8.98015 2.30306 2.20741
47 Ar 8.8751 2.17454 6.48929
48 Ar 8.90321 2.16933 11.1978
49 Ar 8.97564 6.76497 2.1863
50 Ar 8.91439 6.62168 6.86286
51 Ar 8.98406 6.73539 11.2442
52 Ar 9.02146 11.0958 2.25738
53 Ar 8.78801 11.2426 6.64713
54 Ar 9.10888 11.2497 11.135
55 Ar 2.162 0.101677 2.11756
56 Ar 2.20012 -0.0559957 6.47273
57 Ar 2.36826 -0.0528057 11.1281
58 Ar 2.28898 4.52074 2.06448
59 Ar 2.30206 4.38344 6.69361
60 Ar 2.23331 4.38357 11.2372
61 Ar 2.11436 8.92313 2.19795
62 Ar 2.25513 8.91601 6.72763
63 Ar 2.21929 9.03919 11.1622
64 Ar 6.66094 -0.102959 2.15509
65 Ar 6.63122 -0.0292298 6.85753
66 Ar 6.77321 -0.0385652 11.1117
67 Ar 6.61508 4.60275 2.22873
68 Ar 6.49895 4.50741 6.76409
69 Ar 6.68949 4.64782 10.9031
70 Ar 6.91414 9.00224 2.08974
71 Ar 6.6954 8.81555 6.68536
72 Ar 6.65778 8.93253 11.0761
73 Ar 11.3007 -0.0250071 2.00208
74 Ar 11.0696 -0.0195694 6.85314
75 Ar 11.3706 -0.0992765 11.2547
76 Ar 11.1252 4.49988 2.21224
77 Ar 11.1877 4.32182 6.72259
78 Ar 11.1317 4.35792 11.1463
79 Ar 11.1185 8.7562 2.32448
80 Ar 11.3497 8.83726 6.62404
81 Ar 11.0686 8.90264 11.0584
82 Ar 2.0405 2.21079 0.0993753
83 Ar 2.25169 2.37979 4.34634
84 Ar 2.23014 1.90989 8.82081
85 Ar 2.04199 6.77082 0.0288623
86 Ar 2.10014 6.76401 4.38972
87 Ar 2.09391 6.74937 9.12498
88 Ar 2.17182 11.0182 0.100482
89 Ar 2.29922 11.2124 4.53271
90 Ar 2.31492 11.0298 8.73583
91 Ar 6.53422 2.33177 -0.152666
92 Ar 6.71375 2.22189 4.34099
93 Ar 6.64185 2.35288 8.89685
94 Ar 6.61191 6.68154 -0.150902
95 Ar 6.57103 6.70646 4.45058
96 Ar 6.44271 6.74057 8.87281
97 Ar 6.70927 11.0293 -0.0760834
98 Ar 6.67171 11.2476 4.46121
99 Ar 6.80884 11.072 8.86534
100 Ar 11.1242 2.25476 0.101545
101 Ar 11.2219 2.28497 4.4865
102 Ar 11.2379 2.25798 8.77175
103 Ar 11.093 6.56302 0.0814022
104 Ar 11.1519 6.52782 4.48877
105 Ar 11.1917 6.55973 8.95518
106 Ar 11.2845 10.9977 0.127
107 Ar 11.0792 11.1667 4.45213
108 Ar 11.0606 11.0568 8.90851
ITEM: TIMESTEP
42020
ITEM: NUMBER OF ATOMS
108
ITEM: BOX BOUNDS pp pp pp
0.0000000000000000e+00 1.3349999400000000e+01
0.0000000000000000e+00 1.3349999400000000e+01
0.0000000000000000e+00 1.3349999400000000e+01
ITEM: ATOMS id element xu yu zu
1 Ar 0.0202576 -0.12411 0.13108
2 Ar 0.11704 0.121855 4.30651
3 Ar 0.0164994 -0.118126 8.90597
4 Ar -0.119117 4.37539 -0.119426
5 Ar -0.0109761 4.37287 4.61857
6 Ar 0.146934 4.27844 8.81772
7 Ar -0.0718116 8.88512 0.110249
8 Ar 0.0785659 8.97678 4.42878
9 Ar -0.0853864 9.00865 8.93846
10 Ar 4.54192 -0.0226117 -0.0974237
11 Ar 4.39408 0.224694 4.33799
12 Ar 4.49177 -0.133288 8.91407
13 Ar 4.35262 4.4839 -0.100831
14 Ar 4.46832 4.49245 4.3929
15 Ar 4.37351 4.36321 9.00589
16 Ar 4.52382 8.9798 0.113258
17 Ar 4.47414 8.8596 4.50779
18 Ar 4.3246 9.01872 8.87228
19 Ar 8.8411 -0.0137554 0.0339513
20 Ar 8.86187 0.096229 4.45521
21 Ar 8.96079 0.0950108 8.99103
22 Ar 8.74095 4.35616 -0.00195753
23 Ar 8.7757 4.62483 4.46593
24 Ar 9.04382 4.46546 8.76367
25 Ar 8.95266 9.0639 -0.0140472
26 Ar 8.92818 8.97381 4.32299
27 Ar 8.79932 8.71877 8.95462
28 Ar -0.06522 2.15385 2.25471
29 Ar 0.137607 2.04044 6.62263
30 Ar 0.0822192 2.13821 11.2329
31 Ar -0.129841 6.57925 2.24356
32 Ar 0.0354786 6.5723 6.73735
33 Ar -0.241144 6.69862 11.1785
34 Ar 0.192872 10.9691 2.36745
35 Ar 0.0127946 11.1905 6.89475
36 Ar -0.0750596 11.025 11.1642
37 Ar 4.46447 2.24309 2.04663
38 Ar 4.53234 2.17057 6.61321
39 Ar 4.33227 2.21316 11.0209
40 Ar 4.33201 6.76489 2.23563
41 Ar 4.2539 6.80215 6.7175
42 Ar 4.38957 6.99869 11.128
43 Ar 4.3415 11.2414 2.39571
44 Ar 4.45987 10.9753 6.55514
45 Ar 4.59116 11.0444 11.1676
46 Ar 8.98602 2.3034 2.1918
47 Ar 8.86908 2.1931 6.49407
48 Ar 8.87301 2.18311 11.2073
49 Ar 8.94729 6.75929 2.19517
50 Ar 8.90775 6.62797 6.86328
51 Ar 9.01632 6.74035 11.2295
52 Ar 9.01015 11.1119 2.24922
53 Ar 8.77728 11.2683 6.64426
54 Ar 9.11094 11.2743 11.1394
55 Ar 2.16002 0.0848711 2.12814
56 Ar 2.1848 -0.0514494 6.50356
57 Ar 2.35611 -0.0640573 11.126
58 Ar 2.30917 4.52679 2.07849
59 Ar 2.28785 4.3812 6.68059
60 Ar 2.22175 4.37745 11.225
61 Ar 2.11074 8.91817 2.19701
62 Ar 2.23571 8.91513 6.71144
63 Ar 2.21141 9.03177 11.1566
64 Ar 6.67975 -0.0836331 2.17174
65 Ar 6.62531 -0.0211065 6.85255
66 Ar 6.80196 -0.0604135 11.0992
67 Ar 6.60739 4.60405 2.20405
68 Ar 6.50139 4.54476 6.77763
69 Ar 6.67387 4.64705 10.8958
70 Ar 6.9104 8.99216 2.09781
71 Ar 6.7034 8.82138 6.67438
72 Ar 6.66124 8.93733 11.0662
73 Ar 11.3069 -0.0371261 2.00158
74 Ar 11.0611 -0.0397671 6.84629
75 Ar 11.3667 -0.0921467 11.2668
76 Ar 11.137 4.48984 2.21315
77 Ar 11.1658 4.34825 6.72654
78 Ar 11.1334 4.36562 11.1547
79 Ar 11.1182 8.76345 2.33126
80 Ar 11.3531 8.83947 6.63891
81 Ar 11.0659 8.88799 11.0546
82 Ar 2.04211 2.18565 0.090572
83 Ar 2.26509 2.39518 4.35842
84 Ar 2.23803 1.91719 8.80612
85 Ar 2.03007 6.76933 0.0421705
86 Ar 2.10309 6.77092 4.37451
87 Ar 2.12724 6.72047 9.10221
88 Ar 2.18245 11.0413 0.0961312
89 Ar 2.29539 11.2108 4.53155
90 Ar 2.29178 11.0415 8.7548
91 Ar 6.5313 2.3172 -0.17067
92 Ar 6.7016 2.22743 4.35378
93 Ar 6.62582 2.33174 8.88064
94 Ar 6.58826 6.71712 -0.155878
95 Ar 6.57223 6.71895 4.46612
96 Ar 6.44511 6.74468 8.86054
97 Ar 6.7254 11.0248 -0.0684907
98 Ar 6.68998 11.249 4.46855
99 Ar 6.79241 11.0633 8.87082
100 Ar 11.1222 2.25433 0.104751
101 Ar 11.208 2.27111 4.48374
102 Ar 11.243 2.25056 8.76574
103 Ar 11.0992 6.54708 0.0744283
104 Ar 11.1868 6.52267 4.48564
105 Ar 11.1904 6.52734 8.96254
106 Ar 11.262 11.0039 0.136352
107 Ar 11.079 11.1553 4.43325
108 Ar 11.0756 11.0372 8.91623
ITEM: TIMESTEP
42030
ITEM: NUMBER OF ATOMS
108
ITEM: BOX BOUNDS pp pp pp
0.0000000000000000e+00 1.3349999400000000e+01
0.0000000000000000e+00 1.3349999400000000e+01
0.0000000000000000e+00 1.3349999400000000e+01
ITEM: ATOMS id element xu yu zu
1 Ar 0.0422733 -0.12215 0.108961
2 Ar 0.118849 0.105847 4.31028
3 Ar -0.0105433 -0.122371 8.92261
4 Ar -0.120762 4.35847 -0.10483
5 Ar -0.00991301 4.37613 4.59406
6 Ar 0.142267 4.28359 8.79272
7 Ar -0.078617 8.87728 0.112813
8 Ar 0.102283 8.97596 4.41745
9 Ar -0.0909659 8.98831 8.95453
10 Ar 4.55787 -0.0268552 -0.0975206
11 Ar 4.40773 0.213438 4.33825
12 Ar 4.49471 -0.128178 8.92292
13 Ar 4.36577 4.47885 -0.0995799
14 Ar 4.48959 4.48956 4.41207
15 Ar 4.37757 4.33937 9.01671
16 Ar 4.53919 8.98569 0.132725
17 Ar 4.48433 8.84399 4.50695
18 Ar 4.32655 9.01675 8.87955
19 Ar 8.81624 -0.0119071 0.012522
20 Ar 8.86613 0.0839995 4.44169
21 Ar 8.96571 0.103098 8.97772
22 Ar 8.75125 4.3776 0.0108035
23 Ar 8.77665 4.60879 4.47644
24 Ar 9.05417 4.46711 8.78608
25 Ar 8.95494 9.09531 -0.00965052
26 Ar 8.92459 8.98307 4.34657
27 Ar 8.82083 8.72035 8.97702
28 Ar -0.0535562 2.16269 2.264
29 Ar 0.14651 2.03836 6.60441
30 Ar 0.0825058 2.14881 11.2259
31 Ar -0.131026 6.57228 2.22615
32 Ar 0.0212844 6.57524 6.74318
33 Ar -0.242976 6.68646 11.1858
34 Ar 0.19654 10.9805 2.35571
35 Ar -0.00129599 11.1826 6.89302
36 Ar -0.0847546 11.0226 11.1635
37 Ar 4.45185 2.24263 2.06665
38 Ar 4.5201 2.16615 6.63098
39 Ar 4.32951 2.2129 10.9946
40 Ar 4.34267 6.75995 2.21403
41 Ar 4.24125 6.82085 6.70533
42 Ar 4.39276 7.00975 11.1391
43 Ar 4.34394 11.2575 2.39619
44 Ar 4.45332 10.9853 6.55885
45 Ar 4.61023 11.0369 11.162
46 Ar 8.9899 2.30249 2.17769
47 Ar 8.86254 2.21339 6.50187
48 Ar 8.84428 2.19792 11.215
49 Ar 8.91704 6.75141 2.20365
50 Ar 8.90152 6.63584 6.85958
51 Ar 9.04665 6.74318 11.2142
52 Ar 8.99849 11.1308 2.24048
53 Ar 8.76942 11.2909 6.64179
54 Ar 9.11094 11.2968 11.1441
55 Ar 2.16091 0.0665682 2.14028
56 Ar 2.17236 -0.0464006 6.53655
57 Ar 2.34149 -0.0772976 11.1248
58 Ar 2.32659 4.53201 2.09434
59 Ar 2.27457 4.37979 6.66797
60 Ar 2.20867 4.37309 11.2111
61 Ar 2.11112 8.91113 2.19723
62 Ar 2.21294 8.91343 6.69389
63 Ar 2.20224 9.02391 11.1516
64 Ar 6.69873 -0.0628803 2.18806
65 Ar 6.61963 -0.0119697 6.84504
66 Ar 6.82837 -0.0815387 11.0863
67 Ar 6.59994 4.60434 2.17849
68 Ar 6.50521 4.58168 6.78946
69 Ar 6.65906 4.64456 10.8911
70 Ar 6.90188 8.98071 2.10855
71 Ar 6.71195 8.82853 6.66267
72 Ar 6.66683 8.94173 11.0567
73 Ar 11.3084 -0.0499814 2.00672
74 Ar 11.0537 -0.0599065 6.8359
75 Ar 11.3597 -0.0823621 11.2777
76 Ar 11.1477 4.47789 2.2154
77 Ar 11.144 4.37588 6.72859
78 Ar 11.1338 4.3722 11.1617
79 Ar 11.1193 8.77258 2.33729
80 Ar 11.3524 8.84196 6.65352
81 Ar 11.0635 8.87372 11.0525
82 Ar 2.04675 2.16109 0.08024
83 Ar 2.27865 2.40955 4.36998
84 Ar 2.24633 1.92735 8.79208
85 Ar 2.02008 6.76687 0.053321
86 Ar 2.10696 6.7755 4.36046
87 Ar 2.16031 6.69086 9.07823
88 Ar 2.19469 11.0662 0.0898345
89 Ar 2.29008 11.2073 4.52931
90 Ar 2.26774 11.0566 8.77699
91 Ar 6.52952 2.30205 -0.187781
92 Ar 6.68876 2.2341 4.36638
93 Ar 6.61159 2.30893 8.86522
94 Ar 6.56598 6.75234 -0.158621
95 Ar 6.57492 6.73203 4.48141
96 Ar 6.44873 6.74884 8.8485
97 Ar 6.74152 11.0233 -0.0599887
98 Ar 6.70745 11.2491 4.47518
99 Ar 6.77518 11.0547 8.87725
100 Ar 11.1197 2.2531 0.105245
101 Ar 11.1921 2.25566 4.48041
102 Ar 11.2472 2.24159 8.76325
103 Ar 11.1045 6.53317 0.0662904
104 Ar 11.2205 6.51955 4.48408
105 Ar 11.1894 6.49671 8.9683
106 Ar 11.2381 11.0107 0.1449
107 Ar 11.0809 11.1453 4.41569
108 Ar 11.089 11.0186 8.92272
ITEM: TIMESTEP
42040
ITEM: NUMBER OF ATOMS
108
ITEM: BOX BOUNDS pp pp pp
0.0000000000000000e+00 1.3349999400000000e+01
0.0000000000000000e+00 1.3349999400000000e+01
0.0000000000000000e+00 1.3349999400000000e+01
ITEM: ATOMS id element xu yu zu
1 Ar 0.0658494 -0.120155 0.0837256
2 Ar 0.118116 0.0866826 4.31615
3 Ar -0.0372023 -0.124879 8.94119
4 Ar -0.119766 4.34296 -0.087724
5 Ar -0.0075749 4.38008 4.56736
6 Ar 0.137427 4.28925 8.77025
7 Ar -0.0859549 8.86889 0.113522
8 Ar 0.123805 8.97393 4.40891
9 Ar -0.0940808 8.96473 8.9706
10 Ar 4.57264 -0.0315757 -0.0966514
11 Ar 4.42198 0.200319 4.33988
12 Ar 4.49755 -0.123373 8.93144
13 Ar 4.38025 4.47497 -0.099017
14 Ar 4.51018 4.48705 4.43167
15 Ar 4.37926 4.31848 9.02518
16 Ar 4.5523 8.99183 0.152398
17 Ar 4.49389 8.82993 4.50294
18 Ar 4.33079 9.01365 8.8867
19 Ar 8.79328 -0.00931809 -0.00786545
20 Ar 8.87208 0.0710536 4.42665
21 Ar 8.97072 0.111499 8.96378
22 Ar 8.76234 4.40116 0.0227046
23 Ar 8.77842 4.5914 4.48685
24 Ar 9.06079 4.46611 8.81167
25 Ar 8.95848 9.12302 -0.00679483
26 Ar 8.92064 8.99036 4.37445
27 Ar 8.84423 8.72452 8.99771
28 Ar -0.0411134 2.1755 2.27254
29 Ar 0.152897 2.03794 6.58685
30 Ar 0.0816816 2.15875 11.216
31 Ar -0.129563 6.56553 2.20934
32 Ar 0.00833292 6.5794 6.74903
33 Ar -0.240521 6.67419 11.1928
34 Ar 0.196005 10.9961 2.34299
35 Ar -0.0161911 11.1737 6.88559
36 Ar -0.0922215 11.0209 11.1632
37 Ar 4.43977 2.24248 2.08717
38 Ar 4.50666 2.16264 6.64918
39 Ar 4.32831 2.21124 10.9708
40 Ar 4.35517 6.75532 2.19194
41 Ar 4.22966 6.83626 6.69338
42 Ar 4.39473 7.01673 11.1508
43 Ar 4.34829 11.2714 2.39433
44 Ar 4.44835 10.9984 6.56396
45 Ar 4.62652 11.0309 11.1559
46 Ar 8.99156 2.30033 2.1653
47 Ar 8.85556 2.23486 6.51245
48 Ar 8.81744 2.2138 11.2207
49 Ar 8.88579 6.74166 2.21173
50 Ar 8.89592 6.64525 6.85203
51 Ar 9.07412 6.74361 11.1989
52 Ar 8.98644 11.152 2.23152
53 Ar 8.76451 11.3101 6.6401
54 Ar 9.10926 11.3165 11.1488
55 Ar 2.16457 0.047323 2.15389
56 Ar 2.16299 -0.0415069 6.57093
57 Ar 2.32482 -0.0921842 11.1244
58 Ar 2.34113 4.53617 2.11169
59 Ar 2.26253 4.37953 6.65587
60 Ar 2.19434 4.37056 11.196
61 Ar 2.11555 8.90249 2.19823
62 Ar 2.18726 8.91134 6.67569
63 Ar 2.19192 9.01565 11.1474
64 Ar 6.71752 -0.0408346 2.20383
65 Ar 6.61419 -0.00205325 6.83505
66 Ar 6.85174 -0.101645 11.073
67 Ar 6.59279 4.60354 2.15258
68 Ar 6.51022 4.61744 6.79964
69 Ar 6.64542 4.64063 10.8893
70 Ar 6.88899 8.96825 2.12201
71 Ar 6.72097 8.83719 6.65075
72 Ar 6.67471 8.94556 11.048
73 Ar 11.3055 -0.0630651 2.01695
74 Ar 11.0477 -0.0796133 6.82206
75 Ar 11.3497 -0.0699318 11.2875
76 Ar 11.1571 4.46429 2.21907
77 Ar 11.1227 4.40397 6.72841
78 Ar 11.1327 4.37715 11.1674
79 Ar 11.1215 8.7831 2.34254
80 Ar 11.3476 8.84463 6.66749
81 Ar 11.0615 8.86026 11.0524
82 Ar 2.05464 2.13754 0.0686501
83 Ar 2.29229 2.42236 4.38084
84 Ar 2.25446 1.94014 8.77909
85 Ar 2.01226 6.7633 0.0620128
86 Ar 2.11177 6.77746 4.34771
87 Ar 2.19273 6.66092 9.05338
88 Ar 2.2085 11.0919 0.0816203
89 Ar 2.28354 11.2022 4.52632
90 Ar 2.24323 11.0744 8.80191
91 Ar 6.52867 2.28666 -0.203651
92 Ar 6.67561 2.24186 4.37873
93 Ar 6.59959 2.28493 8.8508
94 Ar 6.54589 6.78656 -0.15935
95 Ar 6.57925 6.74511 4.496
96 Ar 6.45337 6.75323 8.83709
97 Ar 6.75714 11.0248 -0.0505957
98 Ar 6.72363 11.2479 4.48087
99 Ar 6.75761 11.0463 8.88409
100 Ar 11.1169 2.25084 0.103027
101 Ar 11.1745 2.23891 4.47671
102 Ar 11.2505 2.23136 8.76397
103 Ar 11.1083 6.52158 0.0575714
104 Ar 11.2521 6.51869 4.48388
105 Ar 11.189 6.46845 8.97237
106 Ar 11.2135 11.0181 0.152347
107 Ar 11.0851 11.1367 4.39966
108 Ar 11.1004 11.0012 8.92803
ITEM: TIMESTEP
42050
ITEM: NUMBER OF ATOMS
108
ITEM: BOX BOUNDS pp pp pp
0.0000000000000000e+00 1.3349999400000000e+01
0.0000000000000000e+00 1.3349999400000000e+01
0.0000000000000000e+00 1.3349999400000000e+01
ITEM: ATOMS id element xu yu zu
1 Ar 0.0900148 -0.118094 0.0561858
2 Ar 0.114927 0.0648105 4.32403
3 Ar -0.0631863 -0.125552 8.96117
4 Ar -0.115947 4.32886 -0.0683829
5 Ar -0.00411316 4.38449 4.53898
6 Ar 0.132355 4.29517 8.75049
7 Ar -0.0938035 8.86046 0.112388
8 Ar 0.142477 8.97086 4.40307
9 Ar -0.0945171 8.93802 8.98639
10 Ar 4.58617 -0.0366843 -0.0949754
11 Ar 4.43649 0.185566 4.34323
12 Ar 4.50019 -0.119122 8.93961
13 Ar 4.39554 4.47209 -0.0994111
14 Ar 4.53001 4.48517 4.45145
15 Ar 4.37864 4.30112 9.03074
16 Ar 4.56268 8.99867 0.171878
17 Ar 4.50256 8.81807 4.49577
18 Ar 4.33673 9.0097 8.89328
19 Ar 8.77265 -0.00572694 -0.0266831
20 Ar 8.87967 0.0580567 4.41057
21 Ar 8.97581 0.120136 8.94936
22 Ar 8.77388 4.42656 0.033471
23 Ar 8.78095 4.57311 4.49679
24 Ar 9.0633 4.46247 8.84002
25 Ar 8.96315 9.14621 -0.00541741
26 Ar 8.91663 8.99568 4.40585
27 Ar 8.86902 8.73132 9.01608
28 Ar -0.0279457 2.19151 2.28028
29 Ar 0.156317 2.03928 6.57011
30 Ar 0.0797212 2.16799 11.2032
31 Ar -0.125577 6.55917 2.19331
32 Ar -0.00308341 6.58473 6.75473
33 Ar -0.233597 6.66182 11.1991
34 Ar 0.191503 11.0152 2.32924
35 Ar -0.0315407 11.1641 6.87288
36 Ar -0.0976559 11.0199 11.1636
37 Ar 4.42846 2.24257 2.10775
38 Ar 4.49221 2.16015 6.66736
39 Ar 4.32854 2.20779 10.9504
40 Ar 4.36936 6.75096 2.16986
41 Ar 4.2193 6.84822 6.68185
42 Ar 4.3953 7.01962 11.1629
43 Ar 4.35473 11.2829 2.39026
44 Ar 4.44474 11.0142 6.57036
45 Ar 4.63968 11.0266 11.1498
46 Ar 8.99083 2.29695 2.15476
47 Ar 8.84821 2.25696 6.52555
48 Ar 8.79287 2.23076 11.2241
49 Ar 8.85439 6.73041 2.21942
50 Ar 8.8912 6.65609 6.84105
51 Ar 9.09788 6.7414 11.1841
52 Ar 8.97392 11.1749 2.22275
53 Ar 8.76254 11.3257 6.63955
54 Ar 9.10634 11.333 11.1529
55 Ar 2.1708 0.0277431 2.16883
56 Ar 2.1568 -0.0373942 6.60592
57 Ar 2.30658 -0.108288 11.1245
58 Ar 2.3528 4.5391 2.13014
59 Ar 2.25194 4.38066 6.64438
60 Ar 2.17907 4.36986 11.1801
61 Ar 2.1239 8.89286 2.19961
62 Ar 2.15926 8.90926 6.65759
63 Ar 2.18061 9.00698 11.1441
64 Ar 6.73572 -0.0176277 2.21881
65 Ar 6.60902 0.00837484 6.82266
66 Ar 6.87141 -0.120406 11.0591
67 Ar 6.58596 4.60156 2.12683
68 Ar 6.51626 4.65127 6.80825
69 Ar 6.6332 4.63556 10.8904
70 Ar 6.87227 8.95525 2.13817
71 Ar 6.73034 8.84749 6.63914
72 Ar 6.68496 8.94865 11.0402
73 Ar 11.2992 -0.0757984 2.03159
74 Ar 11.0433 -0.0984976 6.80494
75 Ar 11.3368 -0.05496 11.2961
76 Ar 11.1648 4.44935 2.2242
77 Ar 11.1021 4.43177 6.7258
78 Ar 11.1304 4.38002 11.1717
79 Ar 11.1244 8.79453 2.34703
80 Ar 11.3388 8.84735 6.68052
81 Ar 11.0603 8.848 11.0547
82 Ar 2.0659 2.1154 0.0560581
83 Ar 2.30591 2.43308 4.39083
84 Ar 2.26185 1.95531 8.76756
85 Ar 2.00684 6.75852 0.0680105
86 Ar 2.11751 6.77657 4.33638
87 Ar 2.22419 6.63106 9.02801
88 Ar 2.22385 11.1178 0.0716068
89 Ar 2.27606 11.1958 4.52283
90 Ar 2.21866 11.0941 8.82902
91 Ar 6.52855 2.27136 -0.217936
92 Ar 6.66252 2.25061 4.39081
93 Ar 6.59015 2.26028 8.83754
94 Ar 6.52876 6.8192 -0.158278
95 Ar 6.58535 6.75763 4.50954
96 Ar 6.45892 6.75805 8.82675
97 Ar 6.77173 11.0292 -0.0403531
98 Ar 6.73804 11.2453 4.48544
99 Ar 6.74015 11.0382 8.8908
100 Ar 11.1139 2.24734 0.0981889
101 Ar 11.1557 2.22114 4.47285
102 Ar 11.2529 2.22022 8.76751
103 Ar 11.1106 6.51252 0.0488389
104 Ar 11.2812 6.52028 4.48478
105 Ar 11.1893 6.44311 8.9747
106 Ar 11.189 11.0262 0.158404
107 Ar 11.0913 11.1293 4.38534
108 Ar 11.1093 10.9853 8.93225
ITEM: TIMESTEP
42060
ITEM: NUMBER OF ATOMS
108
ITEM: BOX BOUNDS pp pp pp
0.0000000000000000e+00 1.3349999400000000e+01
0.0000000000000000e+00 1.3349999400000000e+01
0.0000000000000000e+00 1.3349999400000000e+01
ITEM: ATOMS id element xu yu zu
1 Ar 0.113779 -0.115905 0.0272119
2 Ar 0.10942 0.0407636 4.3338
3 Ar -0.0882414 -0.124407 8.98195
4 Ar -0.109231 4.31617 -0.047173
5 Ar 0.000338299 4.38914 4.50952
6 Ar 0.126977 4.30109 8.73356
7 Ar -0.10209 8.85243 0.109491
8 Ar 0.157714 8.9669 4.39964
9 Ar -0.0921851 8.90844 9.00158
10 Ar 4.59842 -0.0420841 -0.0926381
11 Ar 4.45094 0.169418 4.34861
12 Ar 4.50253 -0.115641 8.94738
13 Ar 4.41109 4.47006 -0.100979
14 Ar 4.54899 4.48418 4.47117
15 Ar 4.37588 4.28776 9.03299
16 Ar 4.56993 9.00666 0.190722
17 Ar 4.51009 8.80896 4.48553
18 Ar 4.34371 9.00514 8.89893
19 Ar 8.75475 -0.000878326 -0.0434718
20 Ar 8.88881 0.0455945 4.39397
21 Ar 8.981 0.128903 8.93465
22 Ar 8.78558 4.4534 0.0428717
23 Ar 8.78415 4.55431 4.50592
24 Ar 9.06149 4.4563 8.8706
25 Ar 8.9687 9.16416 -0.00536394
26 Ar 8.9129 8.99902 4.43993
27 Ar 8.89471 8.74066 9.03152
28 Ar -0.0140999 2.20981 2.28721
29 Ar 0.156442 2.04246 6.5543
30 Ar 0.076651 2.17652 11.1877
31 Ar -0.119287 6.55331 2.17826
32 Ar -0.0127196 6.59114 6.76009
33 Ar -0.222184 6.64933 11.2046
34 Ar 0.1834 11.037 2.3144
35 Ar -0.0469759 11.154 6.85543
36 Ar -0.10133 11.0195 11.1648
37 Ar 4.41812 2.24281 2.128
38 Ar 4.47698 2.15875 6.68506
39 Ar 4.33007 2.20225 10.934
40 Ar 4.38504 6.74676 2.14826
41 Ar 4.21037 6.85671 6.67088
42 Ar 4.39437 7.01852 11.1751
43 Ar 4.36336 11.2917 2.38413
44 Ar 4.44226 11.0322 6.57792
45 Ar 4.64947 11.024 11.1439
46 Ar 8.98761 2.29247 2.1461
47 Ar 8.84058 2.27919 6.54093
48 Ar 8.77088 2.24871 11.2252
49 Ar 8.82365 6.71803 2.22681
50 Ar 8.88757 6.66821 6.82711
51 Ar 9.11719 6.73641 11.1703
52 Ar 8.96089 11.1987 2.21454
53 Ar 8.76338 11.3375 6.64043
54 Ar 9.10261 11.3457 11.1562
55 Ar 2.1793 0.00845678 2.18494
56 Ar 2.15373 -0.0346076 6.64081
57 Ar 2.28728 -0.125102 11.1249
58 Ar 2.36171 4.54073 2.1493
59 Ar 2.24294 4.3834 6.63356
60 Ar 2.1632 4.37095 11.164
61 Ar 2.13586 8.8829 2.20104
62 Ar 2.12963 8.9075 6.64032
63 Ar 2.16856 8.99789 11.1419
64 Ar 6.75293 0.00660808 2.2328
65 Ar 6.60421 0.0190235 6.80796
66 Ar 6.88682 -0.13747 11.0447
67 Ar 6.5795 4.59825 2.10174
68 Ar 6.52319 4.68246 6.81534
69 Ar 6.62255 4.62963 10.8945
70 Ar 6.85237 8.94218 2.15696
71 Ar 6.73982 8.85954 6.62836
72 Ar 6.69757 8.95087 11.0335
73 Ar 11.2899 -0.0875685 2.0499
74 Ar 11.0405 -0.116165 6.78479
75 Ar 11.321 -0.0376386 11.3037
76 Ar 11.1705 4.43346 2.23077
77 Ar 11.0826 4.45856 6.72067
78 Ar 11.1272 4.38049 11.175
79 Ar 11.1275 8.8064 2.35079
80 Ar 11.3262 8.85001 6.69239
81 Ar 11.0602 8.83727 11.0595
82 Ar 2.08061 2.09504 0.0426988
83 Ar 2.31942 2.44123 4.39988
84 Ar 2.26799 1.97266 8.7579
85 Ar 2.00403 6.75245 0.0711542
86 Ar 2.1242 6.7727 4.32656
87 Ar 2.25438 6.60168 9.00244
88 Ar 2.24066 11.1429 0.0599953
89 Ar 2.26798 11.1885 4.5191
90 Ar 2.19438 11.1149 8.85769
91 Ar 6.52891 2.25645 -0.230316
92 Ar 6.64983 2.26022 4.40262
93 Ar 6.5835 2.23554 8.82566
94 Ar 6.5153 6.84969 -0.155619
95 Ar 6.59326 6.76909 4.52168
96 Ar 6.46526 6.76351 8.81792
97 Ar 6.78478 11.0364 -0.0293245
98 Ar 6.75031 11.2413 4.4887
99 Ar 6.72326 11.0306 8.8968
100 Ar 11.1106 2.24247 0.0909122
101 Ar 11.136 2.20266 4.469
102 Ar 11.2545 2.20855 8.77345
103 Ar 11.1112 6.50613 0.0406171
104 Ar 11.3072 6.52448 4.48648
105 Ar 11.1905 6.4212 8.97533
106 Ar 11.1653 11.035 0.162814
107 Ar 11.0995 11.1231 4.37287
108 Ar 11.1157 10.9712 8.93546
ITEM: TIMESTEP
42070
ITEM: NUMBER OF ATOMS
108
ITEM: BOX BOUNDS pp pp pp
0.0000000000000000e+00 1.3349999400000000e+01
0.0000000000000000e+00 1.3349999400000000e+01
0.0000000000000000e+00 1.3349999400000000e+01
ITEM: ATOMS id element xu yu zu
1 Ar 0.136191 -0.113503 -0.0023167
2 Ar 0.101781 0.0151326 4.34532
3 Ar -0.11215 -0.121561 9.00287
4 Ar -0.0996522 4.30485 -0.0245392
5 Ar 0.00565814 4.39384 4.47957
6 Ar 0.121212 4.3068 8.71951
7 Ar -0.110691 8.84518 0.104973
8 Ar 0.169021 8.96222 4.39818
9 Ar -0.0871227 8.87638 9.01586
10 Ar 4.60936 -0.0476687 -0.0897681
11 Ar 4.46504 0.152115 4.3562
12 Ar 4.50443 -0.11311 8.9547
13 Ar 4.42636 4.46868 -0.103881
14 Ar 4.56702 4.48431 4.49058
15 Ar 4.3713 4.27872 9.03169
16 Ar 4.57375 9.01616 0.208459
17 Ar 4.51623 8.80303 4.47245
18 Ar 4.35116 9.00017 8.90335
19 Ar 8.7399 0.00545503 -0.0578728
20 Ar 8.89933 0.0341436 4.3774
21 Ar 8.98627 0.13766 8.9198
22 Ar 8.79716 4.48123 0.0507237
23 Ar 8.78794 4.53542 4.51387
24 Ar 9.05528 4.4478 8.90279
25 Ar 8.9748 9.17627 -0.0064065
26 Ar 8.90983 9.00047 4.47577
27 Ar 8.92081 8.75243 9.04356
28 Ar 0.00038229 2.22941 2.29334
29 Ar 0.153089 2.04747 6.53952
30 Ar 0.0725501 2.1844 11.1697
31 Ar -0.110984 6.54811 2.16435
32 Ar -0.0203861 6.59853 6.76494
33 Ar -0.206427 6.63667 11.2092
34 Ar 0.172159 11.0607 2.29844
35 Ar -0.0621322 11.1436 6.83392
36 Ar -0.103578 11.0195 11.167
37 Ar 4.40893 2.24313 2.14752
38 Ar 4.46122 2.15849 6.70182
39 Ar 4.33272 2.19446 10.9222
40 Ar 4.40193 6.74256 2.1276
41 Ar 4.20302 6.86185 6.66053
42 Ar 4.39187 7.01362 11.1873
43 Ar 4.37429 11.2978 2.37615
44 Ar 4.44063 11.0519 6.58649
45 Ar 4.65574 11.0229 11.1386
46 Ar 8.98189 2.28707 2.13926
47 Ar 8.83278 2.30106 6.55832
48 Ar 8.75175 2.26753 11.2237
49 Ar 8.79428 6.70496 2.23397
50 Ar 8.88522 6.68144 6.81077
51 Ar 9.13146 6.72858 11.1577
52 Ar 8.94733 11.2227 2.2072
53 Ar 8.76684 11.3453 6.64295
54 Ar 9.09851 11.3543 11.1581
55 Ar 2.18973 -0.00992249 2.20203
56 Ar 2.15359 -0.0335711 6.67496
57 Ar 2.26746 -0.142055 11.1253
58 Ar 2.36804 4.54102 2.16876
59 Ar 2.23557 4.38789 6.62343
60 Ar 2.14707 4.37372 11.148
61 Ar 2.15097 8.87325 2.20219
62 Ar 2.09916 8.9063 6.62457
63 Ar 2.15603 8.98838 11.1407
64 Ar 6.76872 0.0317346 2.24562
65 Ar 6.59986 0.0295931 6.79105
66 Ar 6.8975 -0.152484 11.0297
67 Ar 6.57343 4.59348 2.07777
68 Ar 6.53088 4.71034 6.82098
69 Ar 6.61353 4.62312 10.9013
70 Ar 6.83002 8.92953 2.1782
71 Ar 6.7491 8.87339 6.61891
72 Ar 6.71242 8.9521 11.0281
73 Ar 11.2785 -0.0977656 2.07114
74 Ar 11.0396 -0.13223 6.76194
75 Ar 11.3025 -0.0182382 11.3103
76 Ar 11.1741 4.41699 2.23871
77 Ar 11.0644 4.48367 6.7131
78 Ar 11.1234 4.37834 11.1773
79 Ar 11.1305 8.81829 2.35383
80 Ar 11.31 8.85251 6.70297
81 Ar 11.0616 8.8283 11.0671
82 Ar 2.09876 2.07676 0.0287828
83 Ar 2.33269 2.4464 4.40794
84 Ar 2.27237 1.99196 8.7505
85 Ar 2.00399 6.74505 0.0713681
86 Ar 2.13184 6.7658 4.31834
87 Ar 2.28303 6.57321 8.97701
88 Ar 2.25883 11.1665 0.0470617
89 Ar 2.25966 11.1804 4.5153
90 Ar 2.17066 11.136 8.88727
91 Ar 6.52957 2.24221 -0.240503
92 Ar 6.63786 2.27053 4.41416
93 Ar 6.57975 2.21127 8.81534
94 Ar 6.50609 6.87758 -0.151595
95 Ar 6.60297 6.77901 4.53217
96 Ar 6.47232 6.76979 8.811
97 Ar 6.79586 11.0462 -0.0175958
98 Ar 6.76015 11.236 4.49054
99 Ar 6.70737 11.0237 8.90157
100 Ar 11.1073 2.23616 0.0814707
101 Ar 11.116 2.18376 4.46532
102 Ar 11.2551 2.19675 8.78132
103 Ar 11.11 6.50246 0.0333623
104 Ar 11.3297 6.5314 4.48864
105 Ar 11.1927 6.40308 8.97433
106 Ar 11.1433 11.0446 0.165368
107 Ar 11.1095 11.1178 4.36238
108 Ar 11.1196 10.9593 8.93777
ITEM: TIMESTEP
42080
ITEM: NUMBER OF ATOMS
108
ITEM: BOX BOUNDS pp pp pp
0.0000000000000000e+00 1.3349999400000000e+01
0.0000000000000000e+00 1.3349999400000000e+01
0.0000000000000000e+00 1.3349999400000000e+01
ITEM: ATOMS id element xu yu zu
1 Ar 0.156388 -0.110775 -0.0315469
2 Ar 0.0922436 -0.011458 4.35844
3 Ar -0.13473 -0.117211 9.02328
4 Ar -0.0873475 4.29483 -0.000985228
5 Ar 0.0117279 4.39846 4.44975
6 Ar 0.114976 4.31211 8.70832
7 Ar -0.11944 8.83904 0.0990283
8 Ar 0.176012 8.95694 4.39813
9 Ar -0.0794871 8.84232 9.02896
10 Ar 4.61895 -0.0533206 -0.086475
11 Ar 4.47856 0.133896 4.3661
12 Ar 4.50579 -0.111659 8.96151
13 Ar 4.44083 4.46779 -0.108225
14 Ar 4.58396 4.48573 4.5094
15 Ar 4.36534 4.27411 9.02677
16 Ar 4.57396 9.02745 0.224601
17 Ar 4.52079 8.80058 4.45684
18 Ar 4.35851 8.99495 8.90634
19 Ar 8.72832 0.0134474 -0.0696567
20 Ar 8.91104 0.0240547 4.36145
21 Ar 8.99158 0.146234 8.90496
22 Ar 8.80841 4.50954 0.0568946
23 Ar 8.79221 4.51679 4.52033
24 Ar 9.04479 4.43725 8.93584
25 Ar 8.98106 9.18214 -0.00826219
26 Ar 8.9078 9.00014 4.51242
27 Ar 8.94682 8.7664 9.05183
28 Ar 0.0154596 2.24931 2.29866
29 Ar 0.146217 2.05423 6.5258
30 Ar 0.0675483 2.19168 11.1496
31 Ar -0.101011 6.54369 2.15175
32 Ar -0.0259551 6.60676 6.76913
33 Ar -0.186627 6.62376 11.2128
34 Ar 0.158305 11.0852 2.28132
35 Ar -0.0766718 11.1331 6.80911
36 Ar -0.104776 11.0198 11.1703
37 Ar 4.40107 2.24345 2.16601
38 Ar 4.44521 2.15937 6.71725