ITEM: TIMESTEP
38000
ITEM: NUMBER OF ATOMS
108
ITEM: BOX BOUNDS pp pp pp
0.0000000000000000e+00 1.3349999400000000e+01
0.0000000000000000e+00 1.3349999400000000e+01
0.0000000000000000e+00 1.3349999400000000e+01
ITEM: ATOMS id element xu yu zu
1 Ar 0.0342697 0.201082 -0.1204
2 Ar -0.0175428 -0.0583074 4.612
3 Ar -0.0919674 0.250064 8.99678
4 Ar 0.105102 4.43667 0.232655
5 Ar 0.0423124 4.40889 4.41554
6 Ar 0.0343755 4.64419 8.6804
7 Ar -0.110416 9.10846 -0.160287
8 Ar -0.084624 8.86721 4.51372
9 Ar 0.0707908 8.82001 9.20491
10 Ar 4.37721 0.026768 0.0219809
11 Ar 4.56264 -0.0840177 4.47301
12 Ar 4.37364 -0.275779 8.91274
13 Ar 4.34555 4.18745 -0.144708
14 Ar 4.41188 4.22515 4.58072
15 Ar 4.55729 4.48329 8.97037
16 Ar 4.50225 9.15223 -0.03198
17 Ar 4.33667 8.81491 4.44581
18 Ar 4.5364 8.84361 8.87902
19 Ar 8.90498 -0.0555913 -0.216524
20 Ar 8.93276 -0.0245539 4.56448
21 Ar 9.06918 -0.0740582 9.0684
22 Ar 8.79354 4.39834 -0.124133
23 Ar 8.86105 4.26319 4.35282
24 Ar 8.82363 4.47296 8.98965
25 Ar 8.93617 8.85928 0.212677
26 Ar 8.97908 8.91619 4.54087
27 Ar 8.89265 8.69742 8.89897
28 Ar -0.0427782 2.14631 2.48887
29 Ar -0.237329 2.3767 6.73839
30 Ar 0.00739233 2.48347 11.1028
31 Ar 0.0758484 6.73812 2.16297
32 Ar 0.0381958 6.83638 6.58456
33 Ar 0.161209 6.65879 11.1927
34 Ar -0.122127 11.1813 2.08524
35 Ar -0.00749504 11.1054 6.92789
36 Ar 0.0600779 11.2717 11.0182
37 Ar 4.47401 2.14723 2.23142
38 Ar 4.56487 1.97485 6.64887
39 Ar 4.51361 2.18234 10.9268
40 Ar 4.53378 6.66351 2.06264
41 Ar 4.34913 6.71061 6.69955
42 Ar 4.25093 6.77578 11.1767
43 Ar 4.41479 11.017 2.30265
44 Ar 4.28558 11.306 6.61555
45 Ar 4.30866 11.1616 11.0996
46 Ar 8.79394 2.24263 2.15804
47 Ar 8.90591 2.36316 6.57052
48 Ar 8.95853 2.22437 11.0933
49 Ar 8.9793 6.7219 2.30647
50 Ar 8.93775 6.65551 6.60617
51 Ar 8.89731 6.61355 11.1601
52 Ar 8.9517 11.1439 2.21785
53 Ar 9.02139 11.15 6.56661
54 Ar 8.85175 11.0028 11.263
55 Ar 1.99932 0.200234 2.24197
56 Ar 1.98508 0.0115767 6.83024
57 Ar 2.32887 0.146781 10.9411
58 Ar 2.48341 4.3467 2.27802
59 Ar 2.12392 4.49362 6.56028
60 Ar 2.31954 4.43775 11.112
61 Ar 2.18351 9.01041 2.12748
62 Ar 2.04011 9.00069 6.5587
63 Ar 2.29342 8.96637 11.1874
64 Ar 6.87137 -0.0111116 2.38423
65 Ar 6.67609 -0.188988 6.7273
66 Ar 6.63827 -0.235476 11.0735
67 Ar 6.57242 4.32752 2.06606
68 Ar 6.71299 4.51209 6.7642
69 Ar 6.7609 4.47517 10.9797
70 Ar 6.82371 8.83489 2.58009
71 Ar 6.70594 8.93282 6.39939
72 Ar 6.77083 8.93174 11.151
73 Ar 11.1581 0.142641 2.09135
74 Ar 11.1109 -0.102212 6.70218
75 Ar 11.1561 0.0819929 11.1485
76 Ar 11.1203 4.61012 2.33847
77 Ar 10.9598 4.62738 6.32468
78 Ar 11.2103 4.45421 11.0981
79 Ar 11.2101 9.05683 2.15782
80 Ar 11.1455 8.89305 6.85565
81 Ar 10.9932 8.73597 11.1735
82 Ar 2.18533 2.33584 -0.146334
83 Ar 2.18297 2.0366 4.70171
84 Ar 2.20914 2.27915 8.70751
85 Ar 2.27583 6.58577 0.0127463
86 Ar 2.36428 6.61449 4.37354
87 Ar 2.31031 6.76516 8.84803
88 Ar 2.29442 11.3388 0.124196
89 Ar 2.1304 11.1907 4.36044
90 Ar 2.36391 10.826 8.96287
91 Ar 6.41383 1.98846 -0.144461
92 Ar 6.72178 2.13185 4.53119
93 Ar 6.7142 2.02769 8.82153
94 Ar 6.58605 6.7003 0.0064023
95 Ar 6.61816 6.32363 4.30777
96 Ar 6.66435 6.77054 9.03774
97 Ar 6.73467 11.1134 0.0734261
98 Ar 6.70499 11.1242 4.36347
99 Ar 6.84942 11.0313 8.85699
100 Ar 11.1489 2.44772 0.0916467
101 Ar 11.105 2.18866 4.52339
102 Ar 11.0622 2.35464 8.96263
103 Ar 11.2477 6.61049 0.0954761
104 Ar 11.167 6.88177 4.2535
105 Ar 11.08 6.63719 9.03213
106 Ar 11.0461 11.2498 -0.114552
107 Ar 11.0704 11.0356 4.3477
108 Ar 11.04 11.1077 9.12954
ITEM: TIMESTEP
38010
ITEM: NUMBER OF ATOMS
108
ITEM: BOX BOUNDS pp pp pp
0.0000000000000000e+00 1.3349999400000000e+01
0.0000000000000000e+00 1.3349999400000000e+01
0.0000000000000000e+00 1.3349999400000000e+01
ITEM: ATOMS id element xu yu zu
1 Ar 0.0395103 0.200293 -0.128944
2 Ar -0.0206212 -0.0766685 4.63532
3 Ar -0.0898561 0.243251 8.99129
4 Ar 0.0990663 4.4242 0.236061
5 Ar 0.0601819 4.44041 4.41548
6 Ar 0.0282888 4.64901 8.67363
7 Ar -0.116187 9.09799 -0.139487
8 Ar -0.0711368 8.86278 4.5266
9 Ar 0.0572945 8.83259 9.21447
10 Ar 4.37972 0.0357809 0.0137034
11 Ar 4.5623 -0.090946 4.47805
12 Ar 4.37639 -0.273409 8.89226
13 Ar 4.33135 4.19305 -0.13629
14 Ar 4.39009 4.19159 4.58192
15 Ar 4.56583 4.50467 8.98
16 Ar 4.5079 9.16663 -0.0337662
17 Ar 4.34494 8.81932 4.43873
18 Ar 4.52228 8.85381 8.8855
19 Ar 8.93516 -0.0442209 -0.199223
20 Ar 8.92578 -0.0282361 4.58071
21 Ar 9.07409 -0.0925131 9.04828
22 Ar 8.79752 4.38334 -0.144416
23 Ar 8.86083 4.26339 4.33978
24 Ar 8.82449 4.47853 8.98722
25 Ar 8.93381 8.85243 0.205377
26 Ar 8.97351 8.91064 4.5225
27 Ar 8.87274 8.67078 8.8941
28 Ar -0.037545 2.14948 2.48619
29 Ar -0.233073 2.37503 6.74877
30 Ar -0.00390899 2.47371 11.0984
31 Ar 0.0635175 6.73344 2.18537
32 Ar 0.0228491 6.83557 6.59182
33 Ar 0.170179 6.65084 11.2074
34 Ar -0.114454 11.1773 2.089
35 Ar -0.00979866 11.0909 6.94436
36 Ar 0.0697185 11.2828 11.0074
37 Ar 4.46486 2.17393 2.23474
38 Ar 4.58602 1.98696 6.64182
39 Ar 4.49764 2.191 10.9163
40 Ar 4.4994 6.65074 2.06112
41 Ar 4.37362 6.66746 6.69238
42 Ar 4.2656 6.78046 11.198
43 Ar 4.41147 11.0249 2.29741
44 Ar 4.29085 11.3008 6.61066
45 Ar 4.31001 11.1579 11.0925
46 Ar 8.77384 2.24406 2.14891
47 Ar 8.903 2.35532 6.56708
48 Ar 8.95234 2.19436 11.0831
49 Ar 8.98138 6.72673 2.28301
50 Ar 8.92679 6.65145 6.62369
51 Ar 8.89418 6.61117 11.1372
52 Ar 8.95863 11.1407 2.20989
53 Ar 9.00412 11.151 6.56148
54 Ar 8.83986 11.0205 11.2702
55 Ar 2.01339 0.209962 2.25998
56 Ar 1.98691 -0.000431148 6.82806
57 Ar 2.33367 0.149487 10.931
58 Ar 2.49208 4.34461 2.28656
59 Ar 2.13105 4.50154 6.55017
60 Ar 2.31839 4.42519 11.1189
61 Ar 2.17012 9.00748 2.13943
62 Ar 2.04945 8.99318 6.57386
63 Ar 2.28574 8.93263 11.1881
64 Ar 6.87157 0.00157846 2.39598
65 Ar 6.68375 -0.172128 6.71154
66 Ar 6.63375 -0.24277 11.0771
67 Ar 6.56866 4.32481 2.05671
68 Ar 6.71817 4.50116 6.77403
69 Ar 6.75118 4.44454 10.9712
70 Ar 6.8306 8.84872 2.57625
71 Ar 6.71061 8.93358 6.40627
72 Ar 6.7791 8.93366 11.1644
73 Ar 11.1405 0.163628 2.12268
74 Ar 11.1048 -0.084252 6.7134
75 Ar 11.1784 0.0704116 11.1603
76 Ar 11.1179 4.62778 2.32975
77 Ar 10.9653 4.63596 6.3268
78 Ar 11.1765 4.45795 11.0882
79 Ar 11.2037 9.04817 2.15491
80 Ar 11.1381 8.88912 6.85206
81 Ar 10.9945 8.73476 11.1638
82 Ar 2.18076 2.31602 -0.148745
83 Ar 2.16569 2.02586 4.70292
84 Ar 2.2275 2.28589 8.70363
85 Ar 2.30019 6.59434 0.0142166
86 Ar 2.40191 6.62784 4.38322
87 Ar 2.29993 6.74438 8.85043
88 Ar 2.29908 11.3454 0.120329
89 Ar 2.13851 11.1964 4.361
90 Ar 2.37108 10.8405 8.95652
91 Ar 6.41494 1.98718 -0.152358
92 Ar 6.73717 2.14852 4.53595
93 Ar 6.70059 2.04369 8.83918
94 Ar 6.58731 6.72 0.00432689
95 Ar 6.6105 6.34729 4.28494
96 Ar 6.66716 6.76373 9.02748
97 Ar 6.74403 11.1168 0.0728401
98 Ar 6.70314 11.1503 4.35893
99 Ar 6.86209 11.0483 8.85827
100 Ar 11.1606 2.4595 0.0930553
101 Ar 11.1016 2.18409 4.51034
102 Ar 11.0605 2.34647 8.97372
103 Ar 11.2659 6.59839 0.0873413
104 Ar 11.1566 6.88743 4.25759
105 Ar 11.0636 6.6511 9.03224
106 Ar 11.0308 11.2434 -0.110609
107 Ar 11.0799 11.0207 4.33433
108 Ar 11.0446 11.1091 9.13043
ITEM: TIMESTEP
38020
ITEM: NUMBER OF ATOMS
108
ITEM: BOX BOUNDS pp pp pp
0.0000000000000000e+00 1.3349999400000000e+01
0.0000000000000000e+00 1.3349999400000000e+01
0.0000000000000000e+00 1.3349999400000000e+01
ITEM: ATOMS id element xu yu zu
1 Ar 0.0443061 0.198275 -0.136845
2 Ar -0.0261894 -0.0958023 4.65723
3 Ar -0.0875522 0.234491 8.98513
4 Ar 0.0929953 4.41184 0.23847
5 Ar 0.077788 4.47352 4.41478
6 Ar 0.0210663 4.65317 8.66969
7 Ar -0.119791 9.086 -0.118641
8 Ar -0.0560296 8.86158 4.53654
9 Ar 0.0416875 8.84543 9.2207
10 Ar 4.38184 0.0430611 0.00606456
11 Ar 4.55941 -0.0962973 4.48039
12 Ar 4.38139 -0.267184 8.87048
13 Ar 4.32149 4.20257 -0.127241
14 Ar 4.37012 4.15948 4.58288
15 Ar 4.57228 4.52568 8.98707
16 Ar 4.51337 9.17741 -0.0344099
17 Ar 4.35431 8.8252 4.43192
18 Ar 4.5095 8.86515 8.89085
19 Ar 8.96382 -0.0297428 -0.178595
20 Ar 8.92009 -0.0309404 4.59491
21 Ar 9.07611 -0.109474 9.02587
22 Ar 8.80175 4.36928 -0.162384
23 Ar 8.85929 4.26707 4.32531
24 Ar 8.82759 4.48359 8.98164
25 Ar 8.9306 8.84507 0.195557
26 Ar 8.96893 8.90443 4.50383
27 Ar 8.8529 8.64816 8.88836
28 Ar -0.0325433 2.156 2.48103
29 Ar -0.227899 2.37234 6.75819
30 Ar -0.0147001 2.46289 11.0931
31 Ar 0.0528919 6.72942 2.20884
32 Ar 0.00641777 6.83215 6.60033
33 Ar 0.177573 6.64118 11.2226
34 Ar -0.105178 11.1753 2.094
35 Ar -0.0138514 11.0766 6.96032
36 Ar 0.0801524 11.2937 10.9985
37 Ar 4.45582 2.19809 2.23923
38 Ar 4.60529 2.00091 6.6373
39 Ar 4.48154 2.1989 10.9055
40 Ar 4.46424 6.63909 2.06105
41 Ar 4.40045 6.62426 6.68455
42 Ar 4.28469 6.78381 11.2191
43 Ar 4.4098 11.0354 2.29215
44 Ar 4.29723 11.2906 6.60522
45 Ar 4.31443 11.1533 11.0874
46 Ar 8.75572 2.24493 2.13854
47 Ar 8.90064 2.34483 6.56808
48 Ar 8.94421 2.16429 11.0742
49 Ar 8.98131 6.72954 2.25815
50 Ar 8.91383 6.64812 6.6407
51 Ar 8.89064 6.6094 11.117
52 Ar 8.96556 11.1386 2.20198
53 Ar 8.98599 11.15 6.55945
54 Ar 8.8293 11.0376 11.2749
55 Ar 2.03119 0.216957 2.27771
56 Ar 1.99092 -0.014074 6.82625
57 Ar 2.33544 0.151264 10.9227
58 Ar 2.49698 4.34282 2.29523
59 Ar 2.14014 4.50903 6.54198
60 Ar 2.31517 4.41345 11.1227
61 Ar 2.15608 9.0027 2.15143
62 Ar 2.06247 8.98468 6.5901
63 Ar 2.27689 8.89895 11.1913
64 Ar 6.86899 0.0141393 2.4038
65 Ar 6.69337 -0.154477 6.6963
66 Ar 6.62905 -0.247861 11.0804
67 Ar 6.5654 4.32247 2.0473
68 Ar 6.72213 4.48984 6.7832
69 Ar 6.73853 4.41289 10.9666
70 Ar 6.83446 8.86217 2.56784
71 Ar 6.71355 8.93314 6.41613
72 Ar 6.78523 8.935 11.1785
73 Ar 11.1215 0.182569 2.155
74 Ar 11.0992 -0.0651511 6.72566
75 Ar 11.2013 0.0600354 11.1726
76 Ar 11.1156 4.64177 2.3206
77 Ar 10.9742 4.64403 6.33281
78 Ar 11.1426 4.46341 11.0798
79 Ar 11.197 9.03716 2.15114
80 Ar 11.1309 8.88575 6.84794
81 Ar 10.9969 8.73555 11.1551
82 Ar 2.17609 2.29287 -0.148949
83 Ar 2.14921 2.01692 4.70261
84 Ar 2.24662 2.29445 8.70091
85 Ar 2.32342 6.60448 0.0173112
86 Ar 2.43702 6.64145 4.39192
87 Ar 2.28844 6.72288 8.85294
88 Ar 2.30087 11.3508 0.114512
89 Ar 2.14635 11.2018 4.36206
90 Ar 2.37468 10.8582 8.94821
91 Ar 6.42162 1.98833 -0.15962
92 Ar 6.75126 2.16599 4.53969
93 Ar 6.68799 2.06005 8.85726
94 Ar 6.58986 6.73932 0.00133109
95 Ar 6.60269 6.37285 4.26448
96 Ar 6.66874 6.75598 9.01488
97 Ar 6.75209 11.121 0.0739082
98 Ar 6.70114 11.1762 4.35648
99 Ar 6.87334 11.064 8.85882
100 Ar 11.1719 2.46966 0.0938799
101 Ar 11.098 2.17902 4.49569
102 Ar 11.0587 2.33848 8.98221
103 Ar 11.2824 6.58698 0.0772564
104 Ar 11.1462 6.89128 4.2648
105 Ar 11.0495 6.66389 9.0295
106 Ar 11.0179 11.2357 -0.105942
107 Ar 11.0919 11.0084 4.32322
108 Ar 11.0502 11.1086 9.12958
ITEM: TIMESTEP
38030
ITEM: NUMBER OF ATOMS
108
ITEM: BOX BOUNDS pp pp pp
0.0000000000000000e+00 1.3349999400000000e+01
0.0000000000000000e+00 1.3349999400000000e+01
0.0000000000000000e+00 1.3349999400000000e+01
ITEM: ATOMS id element xu yu zu
1 Ar 0.0485622 0.194864 -0.143532
2 Ar -0.0342933 -0.11545 4.67738
3 Ar -0.0849486 0.224009 8.97824
4 Ar 0.0874596 4.39996 0.23989
5 Ar 0.0947816 4.50763 4.41341
6 Ar 0.0126634 4.65648 8.66873
7 Ar -0.121189 9.07275 -0.0981688
8 Ar -0.0394702 8.86351 4.54355
9 Ar 0.0243866 8.85812 9.22366
10 Ar 4.3836 0.0485985 -0.000810526
11 Ar 4.55394 -0.0995898 4.48009
12 Ar 4.38868 -0.257164 8.84777
13 Ar 4.31596 4.21559 -0.117797
14 Ar 4.35257 4.12936 4.58354
15 Ar 4.57632 4.54613 8.9916
16 Ar 4.51847 9.18455 -0.0337674
17 Ar 4.36493 8.8327 4.42553
18 Ar 4.49832 8.87706 8.89495
19 Ar 8.99055 -0.012279 -0.154886
20 Ar 8.91597 -0.0326513 4.60672
21 Ar 9.07527 -0.124572 9.00166
22 Ar 8.80599 4.35636 -0.17799
23 Ar 8.85665 4.27438 4.30981
24 Ar 8.83282 4.4878 8.97303
25 Ar 8.92674 8.83737 0.183116
26 Ar 8.96527 8.89772 4.48533
27 Ar 8.83336 8.6304 8.88189
28 Ar -0.0277714 2.16567 2.47364
29 Ar -0.221904 2.36879 6.76636
30 Ar -0.0249519 2.45142 11.087
31 Ar 0.0443164 6.72603 2.23297
32 Ar -0.0107802 6.82637 6.61002
33 Ar 0.183178 6.62986 11.2379
34 Ar -0.094579 11.1755 2.10011
35 Ar -0.019635 11.0625 6.97553
36 Ar 0.0914254 11.3039 10.9917
37 Ar 4.44725 2.219 2.24465
38 Ar 4.62235 2.0164 6.63539
39 Ar 4.46546 2.20593 10.8948
40 Ar 4.42934 6.62882 2.06236
41 Ar 4.42942 6.58176 6.67635
42 Ar 4.30812 6.78569 11.2394
43 Ar 4.40971 11.0483 2.28687
44 Ar 4.3049 11.2754 6.59927
45 Ar 4.32166 11.1478 11.0842
46 Ar 8.73987 2.24543 2.12695
47 Ar 8.8991 2.33212 6.57354
48 Ar 8.93431 2.1343 11.0663
49 Ar 8.97907 6.73017 2.23214
50 Ar 8.89903 6.64541 6.65661
51 Ar 8.8864 6.60812 11.1
52 Ar 8.97232 11.1378 2.19437
53 Ar 8.96756 11.1469 6.56033
54 Ar 8.82044 11.054 11.277
55 Ar 2.05235 0.221046 2.29489
56 Ar 1.9972 -0.0290936 6.8249
57 Ar 2.33432 0.152012 10.9164
58 Ar 2.49746 4.34149 2.30384
59 Ar 2.15084 4.51595 6.53601
60 Ar 2.30987 4.40274 11.1235
61 Ar 2.14169 8.99629 2.16334
62 Ar 2.07907 8.97508 6.60731
63 Ar 2.26699 8.86615 11.1967
64 Ar 6.86361 0.0264729 2.40753
65 Ar 6.70466 -0.136114 6.68201
66 Ar 6.62424 -0.250492 11.0833
67 Ar 6.5627 4.32086 2.03787
68 Ar 6.72491 4.47822 6.79127
69 Ar 6.72344 4.38079 10.966
70 Ar 6.83504 8.87534 2.55478
71 Ar 6.71469 8.93164 6.42869
72 Ar 6.78917 8.9358 11.1927
73 Ar 11.1015 0.199108 2.18782
74 Ar 11.0944 -0.0453289 6.7387
75 Ar 11.2241 0.0509498 11.185
76 Ar 11.1135 4.65183 2.3113
77 Ar 10.9863 4.65127 6.34242
78 Ar 11.109 4.47029 11.0729
79 Ar 11.1901 9.02389 2.14656
80 Ar 11.1237 8.88307 6.84327
81 Ar 11.0001 8.73843 11.1477
82 Ar 2.17152 2.26693 -0.146944
83 Ar 2.13358 2.00987 4.70113
84 Ar 2.2662 2.30465 8.69912
85 Ar 2.34465 6.61593 0.0220573
86 Ar 2.46907 6.65509 4.39971
87 Ar 2.27624 6.70103 8.85553
88 Ar 2.29974 11.3547 0.106833
89 Ar 2.15387 11.2067 4.36372
90 Ar 2.37459 10.8786 8.93841
91 Ar 6.43357 1.99191 -0.166248
92 Ar 6.76376 2.18402 4.54214
93 Ar 6.67666 2.07631 8.87544
94 Ar 6.59358 6.75783 -0.00220097
95 Ar 6.59472 6.39964 4.2466
96 Ar 6.66866 6.74741 9.00035
97 Ar 6.75881 11.126 0.0767852
98 Ar 6.69912 11.2011 4.35609
99 Ar 6.88292 11.0781 8.8586
100 Ar 11.1825 2.4779 0.0941451
101 Ar 11.0945 2.17392 4.47992
102 Ar 11.0566 2.33069 8.988
103 Ar 11.2968 6.57649 0.0651644
104 Ar 11.1358 6.89333 4.27507
105 Ar 11.038 6.67531 9.02387
106 Ar 11.008 11.2266 -0.100501
107 Ar 11.106 10.999 4.31472
108 Ar 11.0566 11.106 9.12705
ITEM: TIMESTEP
38040
ITEM: NUMBER OF ATOMS
108
ITEM: BOX BOUNDS pp pp pp
0.0000000000000000e+00 1.3349999400000000e+01
0.0000000000000000e+00 1.3349999400000000e+01
0.0000000000000000e+00 1.3349999400000000e+01
ITEM: ATOMS id element xu yu zu
1 Ar 0.0521888 0.189923 -0.148455
2 Ar -0.0448723 -0.135322 4.69548
3 Ar -0.081953 0.212046 8.97059
4 Ar 0.0829968 4.38887 0.240306
5 Ar 0.110857 4.54217 4.41145
6 Ar 0.00306751 4.65875 8.67086
7 Ar -0.120374 9.05847 -0.0784293
8 Ar -0.0216423 8.86834 4.54778
9 Ar 0.00586828 8.87026 9.2235
10 Ar 4.38509 0.0524604 -0.00683885
11 Ar 4.54591 -0.100421 4.47734
12 Ar 4.39825 -0.243532 8.82454
13 Ar 4.31457 4.2316 -0.108217
14 Ar 4.33791 4.1018 4.58384
15 Ar 4.57772 4.5658 8.99371
16 Ar 4.52302 9.18807 -0.0316935
17 Ar 4.3769 8.84195 4.41967
18 Ar 4.48888 8.88898 8.89777
19 Ar 9.01505 0.00790378 -0.128427
20 Ar 8.91364 -0.0333885 4.61583
21 Ar 9.07167 -0.137504 8.97621
22 Ar 8.81003 4.34475 -0.191202
23 Ar 8.85319 4.28539 4.29377
24 Ar 8.83993 4.49088 8.96166
25 Ar 8.92245 8.82956 0.16802
26 Ar 8.96235 8.89071 4.46736
27 Ar 8.8144 8.61821 8.87485
28 Ar -0.0231823 2.17814 2.4643
29 Ar -0.215149 2.36457 6.77303
30 Ar -0.0346283 2.43969 11.0801
31 Ar 0.0379986 6.72327 2.25729
32 Ar -0.0283946 6.81862 6.62072
33 Ar 0.186813 6.61692 11.253
34 Ar -0.0829479 11.1778 2.10717
35 Ar -0.0270633 11.0489 6.9897
36 Ar 0.10354 11.313 10.9874
37 Ar 4.43948 2.23607 2.25068
38 Ar 4.63694 2.03311 6.63613
39 Ar 4.44957 2.21198 10.8847
40 Ar 4.39578 6.62015 2.06501
41 Ar 4.46021 6.54068 6.66796
42 Ar 4.33565 6.786 11.2582
43 Ar 4.41107 11.0637 2.28152
44 Ar 4.31405 11.2555 6.59291
45 Ar 4.33136 11.1415 11.0827
46 Ar 8.72655 2.24576 2.11426
47 Ar 8.89858 2.31766 6.58331
48 Ar 8.92286 2.10454 11.0595
49 Ar 8.97473 6.72852 2.20524
50 Ar 8.88258 6.64315 6.67086
51 Ar 8.88124 6.60728 11.0867
52 Ar 8.97876 11.1382 2.18727
53 Ar 8.94938 11.1415 6.56386
54 Ar 8.81358 11.0697 11.2765
55 Ar 2.07643 0.222142 2.31121
56 Ar 2.00576 -0.0451928 6.82407
57 Ar 2.33053 0.151644 10.9116
58 Ar 2.49303 4.34069 2.31216
59 Ar 2.16275 4.52214 6.53252
60 Ar 2.30255 4.3932 11.1214
61 Ar 2.12732 8.98851 2.17501
62 Ar 2.099 8.96429 6.62534
63 Ar 2.25621 8.83498 11.2038
64 Ar 6.8554 0.0384857 2.40711
65 Ar 6.71724 -0.117124 6.66906
66 Ar 6.61937 -0.250462 11.0859
67 Ar 6.56056 4.32035 2.02849
68 Ar 6.72663 4.46635 6.79784
69 Ar 6.70653 4.34885 10.9695
70 Ar 6.83223 8.88837 2.53706
71 Ar 6.714 8.92924 6.44358
72 Ar 6.79092 8.93614 11.2065
73 Ar 11.081 0.212918 2.22066
74 Ar 11.0903 -0.0251927 6.75221
75 Ar 11.2462 0.0431949 11.1971
76 Ar 11.1113 4.65781 2.30212
77 Ar 11.0009 4.65737 6.35528
78 Ar 11.0765 4.47824 11.0674
79 Ar 11.1833 9.00854 2.14127
80 Ar 11.1165 8.88122 6.838
81 Ar 11.004 8.74342 11.142
82 Ar 2.16733 2.2389 -0.142784
83 Ar 2.11878 2.00475 4.69883
84 Ar 2.28589 2.31629 8.69797
85 Ar 2.36309 6.62843 0.0283333
86 Ar 2.49759 6.66854 4.40672
87 Ar 2.26374 6.67924 8.85817
88 Ar 2.29575 11.3572 0.0974068
89 Ar 2.161 11.2108 4.36605
90 Ar 2.37082 10.9013 8.92761
91 Ar 6.4503 1.99787 -0.172237
92 Ar 6.77445 2.20239 4.54312
93 Ar 6.66679 2.09208 8.89334
94 Ar 6.59831 6.77511 -0.00585226
95 Ar 6.58665 6.42709 4.23141
96 Ar 6.66661 6.73811 8.98434
97 Ar 6.76416 11.1321 0.0815421
98 Ar 6.69718 11.2242 4.3577
99 Ar 6.89055 11.0905 8.85758
100 Ar 11.1922 2.48394 0.0938559
101 Ar 11.091 2.16933 4.46359
102 Ar 11.0544 2.32312 8.99109
103 Ar 11.309 6.56708 0.0511173
104 Ar 11.1254 6.89363 4.28829
105 Ar 11.0295 6.68519 9.01543
106 Ar 11.0014 11.2161 -0.0942925
107 Ar 11.1217 10.9923 4.30909
108 Ar 11.0635 11.1013 9.12299
ITEM: TIMESTEP
38050
ITEM: NUMBER OF ATOMS
108
ITEM: BOX BOUNDS pp pp pp
0.0000000000000000e+00 1.3349999400000000e+01
0.0000000000000000e+00 1.3349999400000000e+01
0.0000000000000000e+00 1.3349999400000000e+01
ITEM: ATOMS id element xu yu zu
1 Ar 0.0550959 0.183349 -0.151104
2 Ar -0.0577537 -0.155101 4.71131
3 Ar -0.0784934 0.198853 8.96216
4 Ar 0.0800841 4.3789 0.239684
5 Ar 0.125755 4.57657 4.40902
6 Ar -0.00770063 4.65972 8.67614
7 Ar -0.117361 9.04338 -0.0597168
8 Ar -0.00274702 8.87577 4.54949
9 Ar -0.013346 8.88143 9.22041
10 Ar 4.38647 0.0547748 -0.0119806
11 Ar 4.53542 -0.0984844 4.47248
12 Ar 4.40999 -0.226591 8.80119
13 Ar 4.31699 4.24999 -0.0987716
14 Ar 4.32646 4.07732 4.58366
15 Ar 4.5763 4.58443 8.99357
16 Ar 4.52682 9.1881 -0.0280499
17 Ar 4.39027 8.85305 4.41438
18 Ar 4.48123 8.90045 8.89936
19 Ar 9.03714 0.0303951 -0.0996313
20 Ar 8.91328 -0.0332102 4.622
21 Ar 9.06544 -0.148045 8.95005
22 Ar 8.81366 4.33461 -0.202006
23 Ar 8.84919 4.30002 4.2777
24 Ar 8.84862 4.49257 8.94787
25 Ar 8.91798 8.8219 0.150306
26 Ar 8.95994 8.8836 4.45023
27 Ar 8.79625 8.61211 8.86751
28 Ar -0.0186986 2.19297 2.45328
29 Ar -0.207661 2.35982 6.77803
30 Ar -0.0436817 2.42803 11.0724
31 Ar 0.0340093 6.72113 2.28131
32 Ar -0.0460475 6.8094 6.63226
33 Ar 0.188333 6.6025 11.2677
34 Ar -0.0705787 11.1825 2.11502
35 Ar -0.0359849 11.0357 7.00251
36 Ar 0.116441 11.3207 10.9857
37 Ar 4.43282 2.24885 2.25694
38 Ar 4.64887 2.05068 6.63953
39 Ar 4.43399 2.21692 10.8757
40 Ar 4.36461 6.61328 2.06903
41 Ar 4.49248 6.50173 6.65947
42 Ar 4.3669 6.78471 11.2751
43 Ar 4.41371 11.081 2.27605
44 Ar 4.32487 11.2313 6.58621
45 Ar 4.34317 11.1346 11.0825
46 Ar 8.71595 2.24614 2.10066
47 Ar 8.89926 2.30196 6.5971
48 Ar 8.91014 2.0752 11.0537
49 Ar 8.96837 6.72451 2.17778
50 Ar 8.86474 6.64116 6.68291
51 Ar 8.87492 6.60683 11.0772
52 Ar 8.98476 11.14 2.18094
53 Ar 8.93195 11.1336 6.5697
54 Ar 8.80898 11.0847 11.2735
55 Ar 2.1029 0.220231 2.32645
56 Ar 2.01659 -0.0620438 6.82369
57 Ar 2.32439 0.150101 10.9083
58 Ar 2.48333 4.34049 2.31998
59 Ar 2.17547 4.52751 6.53168
60 Ar 2.29336 4.38492 11.1169
61 Ar 2.11334 8.97968 2.18631
62 Ar 2.12194 8.95219 6.64403
63 Ar 2.24479 8.80606 11.2121
64 Ar 6.84443 0.0500868 2.40258
65 Ar 6.73068 -0.0975994 6.65774
66 Ar 6.61446 -0.24765 11.0882
67 Ar 6.55899 4.32125 2.01927
68 Ar 6.7275 4.45419 6.80262
69 Ar 6.68842 4.31771 10.9769
70 Ar 6.82603 8.90139 2.51482
71 Ar 6.71148 8.92604 6.46044
72 Ar 6.79053 8.93616 11.2195
73 Ar 11.0604 0.223701 2.25299
74 Ar 11.0869 -0.00513689 6.7659
75 Ar 11.2668 0.0367627 11.2085
76 Ar 11.1093 4.65972 2.29328
77 Ar 11.0176 4.66204 6.371
78 Ar 11.0457 4.48687 11.0633
79 Ar 11.1766 8.99129 2.13539
80 Ar 11.1089 8.88027 6.83207
81 Ar 11.0084 8.75045 11.1381
82 Ar 2.16383 2.20957 -0.136572
83 Ar 2.10476 2.00154 4.69605
84 Ar 2.3053 2.3291 8.69721
85 Ar 2.37803 6.6417 0.0358777
86 Ar 2.52222 6.6816 4.41318
87 Ar 2.2513 6.6579 8.86087
88 Ar 2.28902 11.3581 0.0863735
89 Ar 2.16771 11.2141 4.36915
90 Ar 2.36356 10.9261 8.91634
91 Ar 6.47118 2.00603 -0.177575
92 Ar 6.78318 2.22085 4.54245
93 Ar 6.65857 2.10698 8.9106
94 Ar 6.60389 6.79073 -0.00919501
95 Ar 6.57853 6.45468 4.21891
96 Ar 6.66241 6.72822 8.96732
97 Ar 6.76817 11.1393 0.0881531
98 Ar 6.69545 11.2449 4.36118
99 Ar 6.89593 11.1008 8.85582
100 Ar 11.2009 2.48754 0.0929983
101 Ar 11.0877 2.16582 4.44731
102 Ar 11.052 2.31578 8.99158
103 Ar 11.3188 6.5589 0.0352797
104 Ar 11.1149 6.89218 4.30423
105 Ar 11.0243 6.69345 9.00432
106 Ar 10.9983 11.2043 -0.0873775
107 Ar 11.1386 10.9884 4.30649
108 Ar 11.0707 11.0948 9.11755
ITEM: TIMESTEP
38060
ITEM: NUMBER OF ATOMS
108
ITEM: BOX BOUNDS pp pp pp
0.0000000000000000e+00 1.3349999400000000e+01
0.0000000000000000e+00 1.3349999400000000e+01
0.0000000000000000e+00 1.3349999400000000e+01
ITEM: ATOMS id element xu yu zu
1 Ar 0.0571874 0.175087 -0.151028
2 Ar -0.0726515 -0.17444 4.72475
3 Ar -0.0745221 0.184683 8.95295
4 Ar 0.0791131 4.3703 0.237967
5 Ar 0.139255 4.61023 4.40638
6 Ar -0.0195846 4.65915 8.68458
7 Ar -0.112197 9.02769 -0.0422608
8 Ar 0.0169929 8.88544 4.54905
9 Ar -0.032707 8.89124 9.21466
10 Ar 4.38796 0.0557098 -0.0162392
11 Ar 4.52267 -0.093587 4.46597
12 Ar 4.42375 -0.206757 8.7781
13 Ar 4.32277 4.27016 -0.0897173
14 Ar 4.31843 4.0564 4.58285
15 Ar 4.57199 4.60173 8.99145
16 Ar 4.52969 9.1848 -0.0227162
17 Ar 4.40504 8.86604 4.40966
18 Ar 4.47534 8.91112 8.89982
19 Ar 9.05676 0.0546496 -0.0689942
20 Ar 8.91496 -0.0322107 4.62507
21 Ar 9.05679 -0.156048 8.92376
22 Ar 8.81674 4.32603 -0.210402
23 Ar 8.84494 4.31814 4.26212
24 Ar 8.85851 4.49273 8.93209
25 Ar 8.91358 8.81467 0.13009
26 Ar 8.95777 8.87661 4.43413
27 Ar 8.77917 8.61239 8.86014
28 Ar -0.0142326 2.2096 2.44084
29 Ar -0.199441 2.35472 6.78121
30 Ar -0.0520512 2.41673 11.064
31 Ar 0.0322905 6.71962 2.30452
32 Ar -0.063337 6.79927 6.64439
33 Ar 0.18764 6.58673 11.2815
34 Ar -0.0577579 11.1894 2.12348
35 Ar -0.0461891 11.023 7.0136
36 Ar 0.130008 11.3265 10.9868
37 Ar 4.42751 2.2571 2.26303
38 Ar 4.65803 2.06874 6.64551
39 Ar 4.41883 2.22068 10.8682
40 Ar 4.3368 6.60833 2.07446
41 Ar 4.52579 6.46557 6.65087
42 Ar 4.40132 6.78186 11.2898
43 Ar 4.4174 11.1002 2.27038
44 Ar 4.33749 11.2031 6.57931
45 Ar 4.35667 11.1272 11.0833
46 Ar 8.70823 2.24685 2.08646
47 Ar 8.90121 2.28553 6.6145
48 Ar 8.89649 2.04646 11.0488
49 Ar 8.96012 6.71814 2.15005
50 Ar 8.84583 6.63926 6.69228
51 Ar 8.86729 6.60678 11.0716
52 Ar 8.99022 11.143 2.17561
53 Ar 8.91572 11.1235 6.57743
54 Ar 8.80678 11.099 11.2682
55 Ar 2.13113 0.215371 2.34037
56 Ar 2.02958 -0.079296 6.82365
57 Ar 2.31627 0.147363 10.9062
58 Ar 2.46824 4.34085 2.32711
59 Ar 2.18858 4.532 6.53359
60 Ar 2.28252 4.37795 11.1105
61 Ar 2.10017 8.97015 2.19713
62 Ar 2.14743 8.93873 6.6632
63 Ar 2.23298 8.7799 11.2213
64 Ar 6.83079 0.0611875 2.3941
65 Ar 6.74453 -0.0776476 6.64829
66 Ar 6.60955 -0.242015 11.0902
67 Ar 6.558 4.32383 2.01036
68 Ar 6.72777 4.44166 6.80538
69 Ar 6.66972 4.28805 10.988
70 Ar 6.81656 8.91455 2.48826
71 Ar 6.70716 8.92215 6.47887
72 Ar 6.78808 8.93602 11.231
73 Ar 11.0404 0.231182 2.2843
74 Ar 11.0842 0.0144566 6.77943
75 Ar 11.2853 0.0315975 11.2188
76 Ar 11.1074 4.65765 2.28496
77 Ar 11.0358 4.665 6.38919
78 Ar 11.0169 4.49575 11.0603
79 Ar 11.1701 8.97241 2.12913
80 Ar 11.101 8.88027 6.82539
81 Ar 11.013 8.75936 11.136
82 Ar 2.16134 2.17978 -0.128455
83 Ar 2.09142 2.00021 4.69312
84 Ar 2.32401 2.34276 8.69658
85 Ar 2.3889 6.65548 0.0443168
86 Ar 2.54268 6.6941 4.41936
87 Ar 2.23923 6.63745 8.86364
88 Ar 2.27978 11.3572 0.0738952
89 Ar 2.17397 11.2163 4.37308
90 Ar 2.35315 10.9525 8.90508
91 Ar 6.49547 2.01614 -0.182232
92 Ar 6.78996 2.23915 4.54005
93 Ar 6.6521 2.12068 8.92683
94 Ar 6.6102 6.80428 -0.0118104
95 Ar 6.57047 6.482 4.20906
96 Ar 6.65602 6.71784 8.9498
97 Ar 6.77088 11.1478 0.0964874
98 Ar 6.69402 11.2626 4.36633
99 Ar 6.89876 11.1091 8.85339
100 Ar 11.2084 2.48849 0.0915398
101 Ar 11.0847 2.16399 4.43173
102 Ar 11.0493 2.3087 8.98967
103 Ar 11.3261 6.55203 0.0179246
104 Ar 11.1045 6.88902 4.32256
105 Ar 11.0222 6.70011 8.9908
106 Ar 10.9987 11.1913 -0.079858
107 Ar 11.1562 10.9869 4.30696
108 Ar 11.0778 11.0867 9.11092
ITEM: TIMESTEP
38070
ITEM: NUMBER OF ATOMS
108
ITEM: BOX BOUNDS pp pp pp
0.0000000000000000e+00 1.3349999400000000e+01
0.0000000000000000e+00 1.3349999400000000e+01
0.0000000000000000e+00 1.3349999400000000e+01
ITEM: ATOMS id element xu yu zu
1 Ar 0.0583578 0.16513 -0.147851
2 Ar -0.0891731 -0.19297 4.73572
3 Ar -0.0700177 0.169779 8.94301
4 Ar 0.0803675 4.36331 0.235079
5 Ar 0.151174 4.64256 4.40383
6 Ar -0.0324901 4.65679 8.69616
7 Ar -0.104955 9.0116 -0.0262284
8 Ar 0.0373307 8.89692 4.5469
9 Ar -0.0516562 8.89932 9.20654
10 Ar 4.38978 0.0554497 -0.0196606
11 Ar 4.50792 -0.0856522 4.45837
12 Ar 4.43931 -0.184543 8.75562
13 Ar 4.33136 4.2915 -0.081275
14 Ar 4.31387 4.03946 4.58124
15 Ar 4.56481 4.61739 8.9877
16 Ar 4.53146 9.17838 -0.0156034
17 Ar 4.42111 8.88085 4.40546
18 Ar 4.47112 8.92068 8.89934
19 Ar 9.07392 0.0800047 -0.0370841
20 Ar 8.9187 -0.0305144 4.62497
21 Ar 9.04591 -0.161451 8.89786
22 Ar 8.81915 4.3191 -0.216411
23 Ar 8.84069 4.33953 4.24751
24 Ar 8.86921 4.49127 8.91475
25 Ar 8.90949 8.80819 0.107573
26 Ar 8.95547 8.86996 4.41915
27 Ar 8.76339 8.61909 8.85307
28 Ar -0.00970597 2.22744 2.4273
29 Ar -0.190475 2.3494 6.7825
30 Ar -0.0596653 2.40604 11.0549
31 Ar 0.0326694 6.71878 2.32641
32 Ar -0.0798432 6.7888 6.65689
33 Ar 0.184683 6.56983 11.2943
34 Ar -0.0447571 11.1984 2.13235
35 Ar -0.0574131 11.011 7.02259
36 Ar 0.144044 11.3301 10.9906
37 Ar 4.4237 2.26079 2.26856
38 Ar 4.66437 2.08694 6.65397
39 Ar 4.40418 2.22315 10.8627
40 Ar 4.31322 6.60537 2.08137
41 Ar 4.55963 6.43282 6.64206
42 Ar 4.43825 6.7775 11.3019
43 Ar 4.42192 11.121 2.26445
44 Ar 4.35202 11.1718 6.57237
45 Ar 4.37146 11.1195 11.0848
46 Ar 8.70344 2.24814 2.07208
47 Ar 8.90445 2.2689 6.63499
48 Ar 8.88232 2.01854 11.0445
49 Ar 8.95018 6.70945 2.12239
50 Ar 8.82618 6.6373 6.69857
51 Ar 8.85826 6.60713 11.0696
52 Ar 8.99508 11.1471 2.1715
53 Ar 8.9011 11.1111 6.58663
54 Ar 8.80708 11.1127 11.2608
55 Ar 2.16047 0.207674 2.35277
56 Ar 2.04459 -0.096582 6.8237
57 Ar 2.30658 0.143457 10.9051
58 Ar 2.44789 4.34171 2.33338
59 Ar 2.20167 4.53559 6.53823
60 Ar 2.27028 4.37228 11.1026
61 Ar 2.08821 8.9603 2.20737
62 Ar 2.17498 8.92385 6.68265
63 Ar 2.22108 8.75688 11.2306
64 Ar 6.81464 0.071704 2.38195
65 Ar 6.75833 -0.0573957 6.6408
66 Ar 6.60465 -0.233608 11.0919
67 Ar 6.55756 4.32828 2.00194
68 Ar 6.72776 4.42863 6.80596
69 Ar 6.65099 4.26054 11.0026
70 Ar 6.80407 8.92791 2.4577
71 Ar 6.70109 8.91765 6.49845
72 Ar 6.78368 8.93597 11.2407
73 Ar 11.0214 0.235115 2.31405
74 Ar 11.0824 0.033217 6.79247
75 Ar 11.3012 0.0275988 11.2277
76 Ar 11.1057 4.65185 2.27728
77 Ar 11.0549 4.66599 6.40944
78 Ar 10.9908 4.50445 11.0584
79 Ar 11.1639 8.95216 2.12271
80 Ar 11.0926 8.88121 6.81789
81 Ar 11.0178 8.76996 11.1358
82 Ar 2.16012 2.15039 -0.118615
83 Ar 2.07864 2.0007 4.6903
84 Ar 2.3416 2.35695 8.69584
85 Ar 2.39529 6.66948 0.0532078
86 Ar 2.55883 6.70592 4.42561
87 Ar 2.22781 6.61829 8.86652
88 Ar 2.26833 11.3545 0.0601567
89 Ar 2.17976 11.2172 4.3779
90 Ar 2.34008 10.9801 8.89428
91 Ar 6.52239 2.02788 -0.186152
92 Ar 6.79484 2.25704 4.53589
93 Ar 6.64746 2.13295 8.94168
94 Ar 6.61709 6.8154 -0.0133073
95 Ar 6.56259 6.50873 4.20174
96 Ar 6.6476 6.70714 8.93229
97 Ar 6.77239 11.1574 0.106307
98 Ar 6.69298 11.277 4.37293
99 Ar 6.89874 11.1151 8.85042
100 Ar 11.2145 2.48666 0.0894327
101 Ar 11.082 2.16442 4.41748
102 Ar 11.0465 2.30193 8.98561
103 Ar 11.3308 6.54651 -0.000578378
104 Ar 11.0942 6.88418 4.34293
105 Ar 11.0233 6.70528 8.97523
106 Ar 11.0026 11.1773 -0.0718646
107 Ar 11.1739 10.9875 4.31045
108 Ar 11.0845 11.0772 9.10334
ITEM: TIMESTEP
38080
ITEM: NUMBER OF ATOMS
108
ITEM: BOX BOUNDS pp pp pp
0.0000000000000000e+00 1.3349999400000000e+01
0.0000000000000000e+00 1.3349999400000000e+01
0.0000000000000000e+00 1.3349999400000000e+01
ITEM: ATOMS id element xu yu zu
1 Ar 0.0584916 0.153533 -0.14129
2 Ar -0.106831 -0.210294 4.74422
3 Ar -0.0649843 0.154369 8.93239
4 Ar 0.0840058 4.35812 0.230926
5 Ar 0.161354 4.67299 4.40176
6 Ar -0.0462829 4.65242 8.71079
7 Ar -0.0957473 8.99528 -0.0117278
8 Ar 0.0579934 8.9098 4.54354
9 Ar -0.0696449 8.90534 9.19636
10 Ar 4.39215 0.0541757 -0.0223319
11 Ar 4.49156 -0.0747211 4.45033
12 Ar 4.4564 -0.160541 8.73409
13 Ar 4.34217 4.31344 -0.0736144
14 Ar 4.31272 4.02686 4.57863
15 Ar 4.55486 4.63107 8.98271
16 Ar 4.53199 9.16913 -0.00666819
17 Ar 4.43832 8.89737 4.40165
18 Ar 4.46842 8.92893 8.89814
19 Ar 9.08871 0.105704 -0.00453591
20 Ar 8.92438 -0.0282649 4.62177
21 Ar 9.03306 -0.164276 8.87287
22 Ar 8.82083 4.31388 -0.220078
23 Ar 8.83665 4.36388 4.23429
24 Ar 8.88032 4.48821 8.89636
25 Ar 8.90597 8.80273 0.0830338
26 Ar 8.95271 8.86386 4.40531
27 Ar 8.74914 8.632 8.84662
28 Ar -0.00506817 2.24586 2.41295
29 Ar -0.180744 2.34401 6.78188
30 Ar -0.0664454 2.3961 11.0454
31 Ar 0.0348769 6.71864 2.34644
32 Ar -0.0951343 6.77858 6.66949
33 Ar 0.179469 6.55201 11.3056
34 Ar -0.0318269 11.2094 2.14147
35 Ar -0.0693521 10.9995 7.02908
36 Ar 0.15827 11.331 10.9973
37 Ar 4.42147 2.26011 2.27314
38 Ar 4.6679 2.10498 6.66471
39 Ar 4.39012 2.22426 10.8595