ITEM: TIMESTEP
18000
ITEM: NUMBER OF ATOMS
108
ITEM: BOX BOUNDS pp pp pp
0.0000000000000000e+00 1.3349999400000000e+01
0.0000000000000000e+00 1.3349999400000000e+01
0.0000000000000000e+00 1.3349999400000000e+01
ITEM: ATOMS id element xu yu zu
1 Ar -0.0223988 -0.100803 -0.0668336
2 Ar 0.00468904 0.161371 4.42865
3 Ar -0.180791 -0.0140493 9.06868
4 Ar -0.0899334 4.52503 0.0655761
5 Ar -0.0968875 4.32732 4.51836
6 Ar 0.152098 4.51339 9.01732
7 Ar -0.0321004 8.68166 -0.0141063
8 Ar -0.280537 8.90005 4.514
9 Ar -0.138289 8.9268 8.81932
10 Ar 4.35437 0.0515776 0.0553989
11 Ar 4.44222 0.0909408 4.45247
12 Ar 4.43362 -0.0228872 8.82892
13 Ar 4.7051 4.68677 0.12161
14 Ar 4.71086 4.26479 4.54108
15 Ar 4.71126 4.26677 8.94705
16 Ar 4.4533 9.10142 -0.135505
17 Ar 4.58148 8.68671 4.46323
18 Ar 4.42848 9.04635 8.78014
19 Ar 8.97002 -0.185464 0.0117331
20 Ar 8.94526 0.0900366 4.32809
21 Ar 9.00573 -0.0647464 8.87693
22 Ar 8.84717 4.43585 -0.0585252
23 Ar 8.9845 4.41941 4.60481
24 Ar 9.0558 4.42137 8.89903
25 Ar 8.8308 8.83216 -0.127806
26 Ar 8.86138 9.15133 4.5052
27 Ar 8.82773 9.01609 8.87945
28 Ar -0.00249764 2.27643 2.33911
29 Ar 0.208283 2.16359 6.59469
30 Ar -0.0343281 2.34775 11.2375
31 Ar -0.118707 6.5186 2.44262
32 Ar -0.0673406 6.72455 6.51509
33 Ar -0.144531 6.78557 11.2302
34 Ar -0.187438 11.1598 1.90111
35 Ar 0.0495758 11.0533 6.75935
36 Ar 0.0447639 10.9071 11.168
37 Ar 4.60077 2.29055 1.99649
38 Ar 4.57196 2.12338 6.93642
39 Ar 4.33395 2.11844 11.2818
40 Ar 4.4236 6.72064 2.36011
41 Ar 4.5056 6.64873 6.63092
42 Ar 4.40409 6.83101 10.9783
43 Ar 4.29121 11.0647 2.37884
44 Ar 4.31884 11.186 6.6135
45 Ar 4.36762 11.3418 11.1877
46 Ar 8.76236 2.41948 2.12608
47 Ar 9.02367 2.12939 6.67229
48 Ar 9.00895 2.25707 11.1726
49 Ar 8.83886 6.57439 2.27718
50 Ar 8.86291 6.5123 6.75214
51 Ar 8.77262 6.74367 11.0736
52 Ar 9.06992 10.9552 2.11759
53 Ar 8.84642 11.2194 6.58665
54 Ar 8.87714 11.1862 11.0968
55 Ar 2.16574 -0.07761 2.09126
56 Ar 2.03225 0.00524836 6.7556
57 Ar 2.14329 0.17517 11.1255
58 Ar 2.31025 4.67517 2.42602
59 Ar 2.4875 4.35836 6.58667
60 Ar 2.49111 4.43779 11.2132
61 Ar 2.0719 9.02167 2.39102
62 Ar 2.15571 8.94687 6.37675
63 Ar 2.13494 8.84049 11.0398
64 Ar 6.79426 -0.0400249 2.21224
65 Ar 6.61667 -0.107152 6.61802
66 Ar 6.99786 0.0134999 11.178
67 Ar 6.69165 4.59769 2.19071
68 Ar 6.76359 4.35054 6.95156
69 Ar 6.72979 4.1821 11.1474
70 Ar 6.70213 8.76786 1.86517
71 Ar 6.78025 8.78405 6.66255
72 Ar 6.53799 9.10594 10.9439
73 Ar 11.0932 0.0726696 2.25181
74 Ar 11.096 0.0132576 6.52886
75 Ar 11.1117 0.018046 11.1947
76 Ar 10.9807 4.45968 2.39787
77 Ar 11.3102 4.39221 6.72792
78 Ar 11.1746 4.52629 11.038
79 Ar 11.0924 8.82934 2.07615
80 Ar 10.8832 8.92728 6.77029
81 Ar 11.1369 8.79631 11.1811
82 Ar 2.12602 2.49864 0.0415841
83 Ar 2.4548 2.28019 4.34459
84 Ar 2.12394 2.20902 8.91068
85 Ar 2.41048 6.82324 0.0595887
86 Ar 2.20267 6.55552 4.49308
87 Ar 2.30426 6.68087 8.7792
88 Ar 2.1479 11.116 0.100699
89 Ar 2.08894 11.3158 4.28458
90 Ar 2.20919 11.1111 8.99877
91 Ar 6.56829 2.04987 -0.16504
92 Ar 6.77996 2.24253 4.61453
93 Ar 6.79104 1.94029 9.05343
94 Ar 6.65339 6.65786 -0.247776
95 Ar 6.87413 6.59405 4.60747
96 Ar 6.70816 6.64939 8.99307
97 Ar 6.66379 11.1828 0.0186244
98 Ar 6.46566 11.0769 4.46254
99 Ar 6.66139 11.1996 8.75434
100 Ar 10.9634 2.25099 -0.0290416
101 Ar 11.088 2.1325 4.46363
102 Ar 11.0906 2.21226 8.82273
103 Ar 11.0478 6.5577 0.046724
104 Ar 10.9918 6.73815 4.44954
105 Ar 11.0655 6.73342 8.94742
106 Ar 11.2392 11.1049 -0.197345
107 Ar 11.3693 11.158 4.35447
108 Ar 11.0814 11.1374 9.09493
ITEM: TIMESTEP
18010
ITEM: NUMBER OF ATOMS
108
ITEM: BOX BOUNDS pp pp pp
0.0000000000000000e+00 1.3349999400000000e+01
0.0000000000000000e+00 1.3349999400000000e+01
0.0000000000000000e+00 1.3349999400000000e+01
ITEM: ATOMS id element xu yu zu
1 Ar -0.0262263 -0.0962591 -0.065424
2 Ar 0.0294612 0.170825 4.44744
3 Ar -0.172125 -0.0195112 9.06264
4 Ar -0.0861063 4.51514 0.0806131
5 Ar -0.0893696 4.34902 4.51445
6 Ar 0.149062 4.50573 9.02683
7 Ar -0.0193862 8.69084 0.00177569
8 Ar -0.296315 8.89645 4.52981
9 Ar -0.148144 8.9266 8.83074
10 Ar 4.34444 0.0310019 0.0473757
11 Ar 4.41732 0.0808669 4.4498
12 Ar 4.42043 -0.0229776 8.82332
13 Ar 4.7091 4.69587 0.122211
14 Ar 4.71293 4.28368 4.53663
15 Ar 4.68525 4.27114 8.94975
16 Ar 4.45046 9.11325 -0.146114
17 Ar 4.58103 8.69014 4.45069
18 Ar 4.4158 9.03849 8.76732
19 Ar 8.95616 -0.204989 0.0288852
20 Ar 8.94808 0.0939736 4.34219
21 Ar 9.0031 -0.0545536 8.88194
22 Ar 8.85382 4.4429 -0.0609943
23 Ar 8.98017 4.39699 4.61651
24 Ar 9.03516 4.4361 8.89933
25 Ar 8.82061 8.82803 -0.128762
26 Ar 8.8645 9.16218 4.48884
27 Ar 8.82248 9.0132 8.87129
28 Ar 0.00381589 2.28116 2.31727
29 Ar 0.21454 2.15977 6.60977
30 Ar -0.0604092 2.36272 11.2628
31 Ar -0.107177 6.53248 2.4295
32 Ar -0.0713183 6.7201 6.4985
33 Ar -0.159061 6.79044 11.2408
34 Ar -0.1796 11.1814 1.89331
35 Ar 0.0535162 11.0498 6.76138
36 Ar 0.0458999 10.8999 11.177
37 Ar 4.60255 2.2766 2.00187
38 Ar 4.58082 2.13416 6.94214
39 Ar 4.33697 2.12786 11.2708
40 Ar 4.43621 6.69617 2.36317
41 Ar 4.48364 6.63616 6.62741
42 Ar 4.42109 6.8335 10.9598
43 Ar 4.27533 11.0612 2.37788
44 Ar 4.33094 11.1706 6.61357
45 Ar 4.37835 11.3334 11.1826
46 Ar 8.775 2.41766 2.14051
47 Ar 9.01267 2.13399 6.67234
48 Ar 9.01258 2.24294 11.1796
49 Ar 8.85269 6.5855 2.26554
50 Ar 8.85438 6.526 6.77785
51 Ar 8.78708 6.73215 11.0855
52 Ar 9.07523 10.9652 2.13435
53 Ar 8.84269 11.2295 6.60534
54 Ar 8.87159 11.1976 11.0894
55 Ar 2.16723 -0.0669306 2.07752
56 Ar 2.00178 0.00997869 6.74966
57 Ar 2.14693 0.180359 11.118
58 Ar 2.32841 4.66936 2.45032
59 Ar 2.48554 4.35582 6.58104
60 Ar 2.48938 4.42982 11.2142
61 Ar 2.07515 9.0424 2.38969
62 Ar 2.1625 8.94218 6.36963
63 Ar 2.12295 8.8339 11.0519
64 Ar 6.80819 -0.0623004 2.21589
65 Ar 6.59699 -0.125124 6.61862
66 Ar 6.983 0.0169444 11.1752
67 Ar 6.68073 4.59517 2.17591
68 Ar 6.77647 4.35603 6.93205
69 Ar 6.7256 4.19213 11.1553
70 Ar 6.70006 8.76702 1.86201
71 Ar 6.79144 8.79711 6.64842
72 Ar 6.53167 9.10279 10.9322
73 Ar 11.0872 0.0756549 2.25593
74 Ar 11.1076 0.0304454 6.50764
75 Ar 11.0958 0.00746283 11.2009
76 Ar 10.9821 4.46986 2.39172
77 Ar 11.2994 4.38897 6.73097
78 Ar 11.1723 4.51262 11.0405
79 Ar 11.101 8.84419 2.08921
80 Ar 10.8772 8.92677 6.76425
81 Ar 11.1299 8.80211 11.1691
82 Ar 2.13947 2.53033 0.0600751
83 Ar 2.47982 2.25721 4.34646
84 Ar 2.13401 2.24561 8.90724
85 Ar 2.39958 6.82702 0.0490645
86 Ar 2.19566 6.55222 4.48871
87 Ar 2.29017 6.69062 8.77694
88 Ar 2.1663 11.0918 0.107848
89 Ar 2.10114 11.3263 4.28329
90 Ar 2.22958 11.1106 8.98567
91 Ar 6.58391 2.05688 -0.160668
92 Ar 6.77755 2.24644 4.6011
93 Ar 6.79597 1.949 9.05438
94 Ar 6.66349 6.64656 -0.268342
95 Ar 6.87944 6.59376 4.61791
96 Ar 6.72577 6.63883 8.97569
97 Ar 6.66223 11.173 0.0300042
98 Ar 6.47353 11.0878 4.45058
99 Ar 6.6423 11.1982 8.73997
100 Ar 10.9712 2.2662 -0.0175557
101 Ar 11.0864 2.09936 4.46489
102 Ar 11.0779 2.18744 8.83235
103 Ar 11.06 6.55853 0.0489814
104 Ar 11.001 6.72965 4.44587
105 Ar 11.0808 6.73169 8.96644
106 Ar 11.2383 11.0996 -0.202444
107 Ar 11.3612 11.1231 4.35483
108 Ar 11.0749 11.1251 9.09378
ITEM: TIMESTEP
18020
ITEM: NUMBER OF ATOMS
108
ITEM: BOX BOUNDS pp pp pp
0.0000000000000000e+00 1.3349999400000000e+01
0.0000000000000000e+00 1.3349999400000000e+01
0.0000000000000000e+00 1.3349999400000000e+01
ITEM: ATOMS id element xu yu zu
1 Ar -0.0297558 -0.0869644 -0.0650889
2 Ar 0.0546778 0.177717 4.46454
3 Ar -0.161789 -0.0249215 9.0551
4 Ar -0.0813269 4.50611 0.0960176
5 Ar -0.0802051 4.37072 4.51051
6 Ar 0.145337 4.49886 9.03462
7 Ar -0.00585837 8.70187 0.0205444
8 Ar -0.308262 8.89244 4.54349
9 Ar -0.155722 8.92451 8.84194
10 Ar 4.33521 0.00856069 0.0396212
11 Ar 4.39326 0.0707356 4.44635
12 Ar 4.40646 -0.0238628 8.82069
13 Ar 4.7075 4.70139 0.11988
14 Ar 4.71427 4.30475 4.5315
15 Ar 4.65589 4.27763 8.95416
16 Ar 4.4468 9.12267 -0.155258
17 Ar 4.57999 8.69637 4.43823
18 Ar 4.40283 9.02924 8.75409
19 Ar 8.94313 -0.221439 0.0475081
20 Ar 8.94879 0.0946812 4.35656
21 Ar 9.00047 -0.044202 8.88593
22 Ar 8.8605 4.45105 -0.0635246
23 Ar 8.975 4.37414 4.62766
24 Ar 9.01326 4.44966 8.90092
25 Ar 8.81224 8.82522 -0.13024
26 Ar 8.8679 9.16966 4.4703
27 Ar 8.81745 9.00935 8.86474
28 Ar 0.0102404 2.28608 2.29313
29 Ar 0.216916 2.15954 6.62633
30 Ar -0.0862324 2.37646 11.2868
31 Ar -0.0944316 6.54856 2.41428
32 Ar -0.0746898 6.71457 6.48562
33 Ar -0.169299 6.7911 11.2484
34 Ar -0.170475 11.2011 1.89144
35 Ar 0.0552614 11.0482 6.76267
36 Ar 0.0475469 10.8957 11.185
37 Ar 4.60304 2.26265 2.0106
38 Ar 4.58844 2.14522 6.94368
39 Ar 4.34193 2.13764 11.2575
40 Ar 4.45039 6.67313 2.36505
41 Ar 4.46265 6.62343 6.62554
42 Ar 4.43864 6.83438 10.9423
43 Ar 4.26351 11.058 2.37444
44 Ar 4.34198 11.1545 6.61265
45 Ar 4.38953 11.3248 11.1762
46 Ar 8.78737 2.41304 2.15583
47 Ar 8.99924 2.1393 6.67363
48 Ar 9.01626 2.22847 11.1852
49 Ar 8.8666 6.59904 2.25329
50 Ar 8.84872 6.54173 6.80364
51 Ar 8.80365 6.71958 11.0964
52 Ar 9.07854 10.9772 2.15166
53 Ar 8.84055 11.24 6.62398
54 Ar 8.86627 11.2054 11.0826
55 Ar 2.16839 -0.0522537 2.06515
56 Ar 1.97584 0.0125881 6.74375
57 Ar 2.14957 0.182956 11.1113
58 Ar 2.34572 4.65871 2.47
59 Ar 2.4809 4.35368 6.57734
60 Ar 2.48525 4.4251 11.2139
61 Ar 2.07793 9.05926 2.38806
62 Ar 2.17031 8.9372 6.36465
63 Ar 2.11285 8.82741 11.0639
64 Ar 6.82012 -0.084137 2.22025
65 Ar 6.57913 -0.140451 6.61851
66 Ar 6.96308 0.018119 11.1718
67 Ar 6.67101 4.59131 2.16338
68 Ar 6.78918 4.36076 6.91017
69 Ar 6.72078 4.20504 11.1615
70 Ar 6.69685 8.76718 1.86423
71 Ar 6.80062 8.81179 6.63544
72 Ar 6.52667 9.09894 10.9224
73 Ar 11.0818 0.0783874 2.25791
74 Ar 11.1214 0.0445083 6.48976
75 Ar 11.0805 -0.00201396 11.2066
76 Ar 10.9853 4.47841 2.38357
77 Ar 11.2875 4.38622 6.73468
78 Ar 11.169 4.49852 11.0443
79 Ar 11.1098 8.85815 2.10303
80 Ar 10.8733 8.92652 6.75715
81 Ar 11.1203 8.80951 11.1568
82 Ar 2.15402 2.55927 0.0808028
83 Ar 2.5025 2.23387 4.34836
84 Ar 2.14536 2.28227 8.90472
85 Ar 2.38723 6.82907 0.0389298
86 Ar 2.18894 6.55204 4.48629
87 Ar 2.27479 6.70022 8.77444
88 Ar 2.18551 11.0667 0.111533
89 Ar 2.11166 11.3353 4.28572
90 Ar 2.24878 11.1107 8.97173
91 Ar 6.60259 2.0652 -0.153253
92 Ar 6.77471 2.24888 4.58588
93 Ar 6.80062 1.96011 9.05309
94 Ar 6.67407 6.63795 -0.287968
95 Ar 6.88302 6.59375 4.62566
96 Ar 6.74178 6.62884 8.95775
97 Ar 6.66009 11.1634 0.0410812
98 Ar 6.48379 11.0986 4.43713
99 Ar 6.62301 11.1967 8.7276
100 Ar 10.9819 2.28114 -0.00377433
101 Ar 11.0857 2.07035 4.4652
102 Ar 11.068 2.16295 8.8432
103 Ar 11.0709 6.55997 0.0513675
104 Ar 11.0086 6.72112 4.44373
105 Ar 11.0967 6.72926 8.98344
106 Ar 11.2335 11.0927 -0.206627
107 Ar 11.3497 11.0909 4.35606
108 Ar 11.0694 11.1124 9.08983
ITEM: TIMESTEP
18030
ITEM: NUMBER OF ATOMS
108
ITEM: BOX BOUNDS pp pp pp
0.0000000000000000e+00 1.3349999400000000e+01
0.0000000000000000e+00 1.3349999400000000e+01
0.0000000000000000e+00 1.3349999400000000e+01
ITEM: ATOMS id element xu yu zu
1 Ar -0.032864 -0.0731386 -0.0660587
2 Ar 0.0798064 0.182047 4.47921
3 Ar -0.150063 -0.0302564 9.04649
4 Ar -0.0756896 4.49841 0.11164
5 Ar -0.0697416 4.39164 4.50651
6 Ar 0.140762 4.49292 9.04063
7 Ar 0.00804062 8.71459 0.0417708
8 Ar -0.315808 8.8879 4.55489
9 Ar -0.160822 8.92067 8.85263
10 Ar 4.32706 -0.0150596 0.0320559
11 Ar 4.37076 0.0602841 4.44233
12 Ar 4.3918 -0.0252567 8.82082
13 Ar 4.70015 4.70325 0.11449
14 Ar 4.71492 4.32758 4.52584
15 Ar 4.62408 4.28636 8.95986
16 Ar 4.44259 9.12912 -0.162838
17 Ar 4.57845 8.70513 4.42595
18 Ar 4.38986 9.01846 8.7406
19 Ar 8.93111 -0.234542 0.0670678
20 Ar 8.94715 0.0919994 4.37116
21 Ar 8.99774 -0.0340036 8.88879
22 Ar 8.86722 4.45996 -0.0659295
23 Ar 8.96932 4.35158 4.63795
24 Ar 8.99069 4.46158 8.90404
25 Ar 8.80589 8.82393 -0.132181
26 Ar 8.87142 9.17362 4.4501
27 Ar 8.81262 9.00461 8.86
28 Ar 0.01661 2.29099 2.26755
29 Ar 0.215108 2.16352 6.64413
30 Ar -0.111099 2.38846 11.3091
31 Ar -0.0804893 6.56667 2.39714
32 Ar -0.0774477 6.70799 6.47692
33 Ar -0.175201 6.78764 11.2533
34 Ar -0.160243 11.2187 1.89554
35 Ar 0.0547657 11.0482 6.76322
36 Ar 0.0497962 10.8947 11.1918
37 Ar 4.60253 2.24864 2.02232
38 Ar 4.59487 2.15639 6.94101
39 Ar 4.3489 2.14746 11.2423
40 Ar 4.46588 6.65208 2.36574
41 Ar 4.44305 6.61095 6.62525
42 Ar 4.45634 6.8336 10.9257
43 Ar 4.25615 11.0552 2.36858
44 Ar 4.35172 11.1376 6.61048
45 Ar 4.40102 11.3162 11.1682
46 Ar 8.79935 2.40583 2.17174
47 Ar 8.98361 2.145 6.6763
48 Ar 9.01978 2.21393 11.1896
49 Ar 8.88018 6.61468 2.24073
50 Ar 8.84634 6.55932 6.82876
51 Ar 8.82223 6.70619 11.1062
52 Ar 9.07987 10.9909 2.16916
53 Ar 8.84016 11.2509 6.64224
54 Ar 8.86093 11.2095 11.0765
55 Ar 2.16915 -0.0339188 2.05416
56 Ar 1.95528 0.0128746 6.73833
57 Ar 2.15108 0.183222 11.1055
58 Ar 2.36193 4.64326 2.48491
59 Ar 2.47349 4.35188 6.57535
60 Ar 2.47868 4.4239 11.2123
61 Ar 2.08011 9.07181 2.38643
62 Ar 2.1789 8.93203 6.36176
63 Ar 2.10485 8.82107 11.0756
64 Ar 6.82974 -0.105104 2.22533
65 Ar 6.56313 -0.152616 6.6175
66 Ar 6.93829 0.0170373 11.1678
67 Ar 6.66318 4.58615 2.15329
68 Ar 6.80103 4.36464 6.88641
69 Ar 6.71542 4.22045 11.1659
70 Ar 6.69242 8.7681 1.87169
71 Ar 6.80753 8.82789 6.62356
72 Ar 6.52317 9.09443 10.9142
73 Ar 11.0772 0.0806635 2.25783
74 Ar 11.137 0.0549373 6.47578
75 Ar 11.066 -0.0103444 11.2117
76 Ar 10.9902 4.4852 2.37384
77 Ar 11.2747 4.38384 6.73907
78 Ar 11.1644 4.48425 11.0491
79 Ar 11.1185 8.87108 2.11721
80 Ar 10.8714 8.92642 6.74918
81 Ar 11.1081 8.81842 11.1447
82 Ar 2.16984 2.58511 0.103295
83 Ar 2.52238 2.21087 4.35043
84 Ar 2.15785 2.3183 8.90327
85 Ar 2.37387 6.8292 0.0294493
86 Ar 2.18267 6.55526 4.48573
87 Ar 2.25806 6.70956 8.77179
88 Ar 2.20493 11.0413 0.111633
89 Ar 2.12023 11.3428 4.29186
90 Ar 2.26636 11.1114 8.95726
91 Ar 6.62381 2.07456 -0.142836
92 Ar 6.77112 2.24962 4.56902
93 Ar 6.80481 1.97362 9.0496
94 Ar 6.68485 6.63232 -0.306246
95 Ar 6.88512 6.59403 4.63058
96 Ar 6.75581 6.61959 8.93964
97 Ar 6.65742 11.1539 0.0516028
98 Ar 6.49624 11.1091 4.4223
99 Ar 6.60378 11.1949 8.71763
100 Ar 10.9952 2.29545 0.0122027
101 Ar 11.0861 2.04652 4.46424
102 Ar 11.0608 2.13931 8.85506
103 Ar 11.0806 6.56223 0.0538727
104 Ar 11.0143 6.71247 4.4431
105 Ar 11.1129 6.72598 8.99807
106 Ar 11.2248 11.0843 -0.209624
107 Ar 11.335 11.0623 4.35815
108 Ar 11.065 11.0997 9.08307
ITEM: TIMESTEP
18040
ITEM: NUMBER OF ATOMS
108
ITEM: BOX BOUNDS pp pp pp
0.0000000000000000e+00 1.3349999400000000e+01
0.0000000000000000e+00 1.3349999400000000e+01
0.0000000000000000e+00 1.3349999400000000e+01
ITEM: ATOMS id element xu yu zu
1 Ar -0.0354914 -0.0551866 -0.0684335
2 Ar 0.104286 0.183953 4.49077
3 Ar -0.137228 -0.0354969 9.03721
4 Ar -0.0692738 4.49248 0.12729
5 Ar -0.0583185 4.4111 4.5024
6 Ar 0.135172 4.48803 9.04485
7 Ar 0.0218594 8.72883 0.0648897
8 Ar -0.318518 8.8828 4.5639
9 Ar -0.163283 8.91525 8.86258
10 Ar 4.32033 -0.0391749 0.0246147
11 Ar 4.35055 0.0492005 4.43791
12 Ar 4.37661 -0.0268167 8.82345
13 Ar 4.68715 4.70149 0.106021
14 Ar 4.71488 4.35172 4.51982
15 Ar 4.59071 4.29744 8.96643
16 Ar 4.43818 9.13207 -0.168788
17 Ar 4.57652 8.71611 4.41395
18 Ar 4.37712 9.00603 8.727
19 Ar 8.92025 -0.244085 0.0869474
20 Ar 8.94308 0.0858759 4.38595
21 Ar 8.99475 -0.0242724 8.89049
22 Ar 8.87393 4.46928 -0.0680137
23 Ar 8.96347 4.32997 4.64702
24 Ar 8.96802 4.47142 8.90884
25 Ar 8.80164 8.82428 -0.134469
26 Ar 8.87489 9.17388 4.42881
27 Ar 8.80802 8.99906 8.85722
28 Ar 0.0227488 2.29572 2.2414
29 Ar 0.208987 2.17202 6.6629
30 Ar -0.134312 2.39826 11.3295
31 Ar -0.0653996 6.58656 2.37837
32 Ar -0.0796038 6.70045 6.47278
33 Ar -0.17683 6.78036 11.2559
34 Ar -0.149077 11.2344 1.90545
35 Ar 0.0520204 11.0495 6.76309
36 Ar 0.0526699 10.8969 11.1973
37 Ar 4.60135 2.23451 2.03661
38 Ar 4.60019 2.16752 6.93419
39 Ar 4.35789 2.15702 11.2258
40 Ar 4.48235 6.63352 2.36525
41 Ar 4.42522 6.59906 6.62644
42 Ar 4.47377 6.83115 10.9104
43 Ar 4.25348 11.053 2.36045
44 Ar 4.36004 11.1204 6.60684
45 Ar 4.41261 11.3076 11.1585
46 Ar 8.81084 2.39624 2.18797
47 Ar 8.9661 2.15073 6.68046
48 Ar 9.02292 2.19957 11.1929
49 Ar 8.89307 6.63209 2.22813
50 Ar 8.84754 6.57856 6.85244
51 Ar 8.84269 6.69222 11.1143
52 Ar 9.0793 11.0061 2.18651
53 Ar 8.84164 11.2617 6.65982
54 Ar 8.85534 11.21 11.0711
55 Ar 2.16948 -0.012404 2.04452
56 Ar 1.94077 0.0108272 6.73385
57 Ar 2.15142 0.181443 11.1005
58 Ar 2.37683 4.6233 2.49513
59 Ar 2.46328 4.35037 6.57479
60 Ar 2.46959 4.42635 11.2097
61 Ar 2.08162 9.07975 2.38509
62 Ar 2.18799 8.92678 6.3609
63 Ar 2.09911 8.81494 11.0866
64 Ar 6.83677 -0.124759 2.23113
65 Ar 6.54902 -0.161221 6.61546
66 Ar 6.90896 0.0137992 11.1636
67 Ar 6.65781 4.57974 2.14567
68 Ar 6.81139 4.36764 6.86128
69 Ar 6.70959 4.23794 11.1682
70 Ar 6.6868 8.76957 1.88416
71 Ar 6.81197 8.84524 6.61271
72 Ar 6.52132 9.08924 10.9077
73 Ar 11.0736 0.0822968 2.25578
74 Ar 11.1541 0.0613634 6.46618
75 Ar 11.0528 -0.0175557 11.2163
76 Ar 10.9967 4.49019 2.36294
77 Ar 11.2612 4.38169 6.74412
78 Ar 11.1585 4.4701 11.055
79 Ar 11.1273 8.88286 2.13143
80 Ar 10.8715 8.92639 6.74055
81 Ar 11.0936 8.82866 11.1332
82 Ar 2.18708 2.60757 0.126959
83 Ar 2.53901 2.18898 4.35283
84 Ar 2.17126 2.35295 8.903
85 Ar 2.3599 6.82726 0.0208631
86 Ar 2.17698 6.56196 4.48674
87 Ar 2.24 6.71854 8.76914
88 Ar 2.2239 11.0165 0.10814
89 Ar 2.12674 11.3485 4.30153
90 Ar 2.28193 11.1125 8.94252
91 Ar 6.64704 2.08469 -0.129546
92 Ar 6.76648 2.24849 4.55065
93 Ar 6.80837 1.98948 9.04401
94 Ar 6.69548 6.62982 -0.322739
95 Ar 6.88599 6.59466 4.63262
96 Ar 6.76744 6.61128 8.92178
97 Ar 6.65428 11.1447 0.0613388
98 Ar 6.51065 11.1191 4.40626
99 Ar 6.58485 11.1927 8.71036
100 Ar 11.0103 2.30884 0.0302255
101 Ar 11.0879 2.02871 4.4618
102 Ar 11.0564 2.11702 8.86765
103 Ar 11.0891 6.56553 0.0564505
104 Ar 11.0178 6.70361 4.4439
105 Ar 11.1291 6.72169 9.01002
106 Ar 11.2127 11.0745 -0.21114
107 Ar 11.3175 11.0381 4.36117
108 Ar 11.0618 11.0874 9.07355
ITEM: TIMESTEP
18050
ITEM: NUMBER OF ATOMS
108
ITEM: BOX BOUNDS pp pp pp
0.0000000000000000e+00 1.3349999400000000e+01
0.0000000000000000e+00 1.3349999400000000e+01
0.0000000000000000e+00 1.3349999400000000e+01
ITEM: ATOMS id element xu yu zu
1 Ar -0.0376292 -0.0336798 -0.072181
2 Ar 0.12754 0.183696 4.49869
3 Ar -0.123552 -0.0406218 9.02763
4 Ar -0.0621358 4.48872 0.142731
5 Ar -0.0462598 4.42859 4.49808
6 Ar 0.128408 4.48424 9.04731
7 Ar 0.035157 8.74441 0.0892286
8 Ar -0.316126 8.87716 4.57049
9 Ar -0.162993 8.90848 8.87157
10 Ar 4.31529 -0.0631297 0.0172519
11 Ar 4.33329 0.0371602 4.43326
12 Ar 4.36108 -0.0281658 8.8282
13 Ar 4.66888 4.6963 0.0945684
14 Ar 4.71414 4.37667 4.51363
15 Ar 4.55663 4.31093 8.97337
16 Ar 4.43393 9.13103 -0.173081
17 Ar 4.57426 8.72897 4.40232
18 Ar 4.36487 8.99188 8.71351
19 Ar 8.91061 -0.249918 0.106481
20 Ar 8.93663 0.0763891 4.40094
21 Ar 8.99131 -0.0153091 8.89105
22 Ar 8.88061 4.47864 -0.0695816
23 Ar 8.95779 4.30993 4.65452
24 Ar 8.94578 4.47882 8.91539
25 Ar 8.79947 8.82638 -0.136946
26 Ar 8.8781 9.1703 4.40701
27 Ar 8.80366 8.99283 8.85647
28 Ar 0.0284819 2.30007 2.21554
29 Ar 0.198611 2.18505 6.6824
30 Ar -0.155199 2.40552 11.3477
31 Ar -0.0492452 6.60792 2.3583
32 Ar -0.0811925 6.69202 6.47343
33 Ar -0.174349 6.76964 11.2565
34 Ar -0.137138 11.2482 1.92082
35 Ar 0.0470543 11.0519 6.76229
36 Ar 0.0561245 10.9024 11.2015
37 Ar 4.59986 2.22021 2.05305
38 Ar 4.60445 2.17847 6.92342
39 Ar 4.36881 2.16607 11.2086
40 Ar 4.49944 6.61785 2.36357
41 Ar 4.40949 6.58809 6.62902
42 Ar 4.49057 6.82708 10.8963
43 Ar 4.2555 11.0517 2.35024
44 Ar 4.36689 11.103 6.60153
45 Ar 4.42412 11.2989 11.1471
46 Ar 8.82179 2.38452 2.20424
47 Ar 8.94715 2.15609 6.68615
48 Ar 9.02546 2.18559 11.1955
49 Ar 8.90497 6.65092 2.21575
50 Ar 8.85247 6.59916 6.87397
51 Ar 8.86484 6.67793 11.1206
52 Ar 9.07693 11.0225 2.20337
53 Ar 8.84503 11.2724 6.67647
54 Ar 8.84928 11.207 11.0664
55 Ar 2.16939 0.0117021 2.03618
56 Ar 1.93276 0.00664739 6.73072
57 Ar 2.15058 0.177919 11.0965
58 Ar 2.39025 4.59935 2.50092
59 Ar 2.45032 4.34915 6.57536
60 Ar 2.45794 4.43244 11.2063
61 Ar 2.0825 9.08294 2.38434
62 Ar 2.19729 8.92159 6.36205
63 Ar 2.09573 8.8091 11.0966
64 Ar 6.84095 -0.142652 2.23759
65 Ar 6.53678 -0.166008 6.61234
66 Ar 6.87549 0.00859061 11.1591
67 Ar 6.65529 4.5721 2.1404
68 Ar 6.81975 4.36982 6.83524
69 Ar 6.70339 4.25705 11.1684
70 Ar 6.68005 8.77145 1.90132
71 Ar 6.81387 8.86361 6.60281
72 Ar 6.52118 9.08339 10.9027
73 Ar 11.0711 0.0831264 2.25192
74 Ar 11.1726 0.0635953 6.46125
75 Ar 11.0411 -0.0237422 11.2202
76 Ar 11.0047 4.49341 2.3513
77 Ar 11.2471 4.3797 6.74981
78 Ar 11.1511 4.45634 11.0616
79 Ar 11.1359 8.89341 2.14533
80 Ar 10.8734 8.92637 6.73149
81 Ar 11.0773 8.83996 11.1225
82 Ar 2.20587 2.62645 0.151088
83 Ar 2.55201 2.16896 4.35578
84 Ar 2.18538 2.3855 8.90396
85 Ar 2.34569 6.82313 0.0133835
86 Ar 2.17205 6.57201 4.48894
87 Ar 2.22064 6.72706 8.7666
88 Ar 2.24175 10.993 0.101157
89 Ar 2.13115 11.3522 4.31441
90 Ar 2.29517 11.1136 8.92779
91 Ar 6.67175 2.09537 -0.1136
92 Ar 6.76052 2.24539 4.53092
93 Ar 6.81112 2.00757 9.03651
94 Ar 6.70557 6.63051 -0.337007
95 Ar 6.88593 6.59572 4.63184
96 Ar 6.77627 6.6041 8.90454
97 Ar 6.65073 11.1356 0.0700859
98 Ar 6.52679 11.1283 4.38929
99 Ar 6.56647 11.19 8.70602
100 Ar 11.0267 2.32108 0.0500914
101 Ar 11.0915 2.01745 4.45775
102 Ar 11.0548 2.09651 8.88071
103 Ar 11.0966 6.57005 0.0590202
104 Ar 11.019 6.69448 4.44602
105 Ar 11.1451 6.7163 9.01908
106 Ar 11.1975 11.0633 -0.210879
107 Ar 11.2974 11.0191 4.36519
108 Ar 11.0598 11.0759 9.06137
ITEM: TIMESTEP
18060
ITEM: NUMBER OF ATOMS
108
ITEM: BOX BOUNDS pp pp pp
0.0000000000000000e+00 1.3349999400000000e+01
0.0000000000000000e+00 1.3349999400000000e+01
0.0000000000000000e+00 1.3349999400000000e+01
ITEM: ATOMS id element xu yu zu
1 Ar -0.0393023 -0.00932487 -0.0771488
2 Ar 0.149004 0.181625 4.50261
3 Ar -0.109288 -0.0456027 9.01807
4 Ar -0.0543028 4.48747 0.157685
5 Ar -0.0338674 4.44369 4.49343
6 Ar 0.12033 4.48153 9.04804
7 Ar 0.047521 8.76113 0.114038
8 Ar -0.308565 8.87108 4.57465
9 Ar -0.159907 8.90063 8.87948
10 Ar 4.31216 -0.0863153 0.0099439
11 Ar 4.31959 0.02387 4.42852
12 Ar 4.34544 -0.0289167 8.83466
13 Ar 4.64595 4.68795 0.0803541
14 Ar 4.71267 4.40193 4.50748
15 Ar 4.52268 4.32686 8.98023
16 Ar 4.43023 9.12557 -0.175719
17 Ar 4.57174 8.74339 4.39116
18 Ar 4.35337 8.976 8.70033
19 Ar 8.90223 -0.251952 0.124992
20 Ar 8.92805 0.0637597 4.41612
21 Ar 8.98722 -0.00738478 8.89058
22 Ar 8.88721 4.48769 -0.0704454
23 Ar 8.95259 4.29199 4.66009
24 Ar 8.92445 4.48349 8.92365
25 Ar 8.79926 8.83026 -0.139417
26 Ar 8.88083 9.16273 4.38528
27 Ar 8.79955 8.98604 8.85772
28 Ar 0.033647 2.30383 2.1908
29 Ar 0.184227 2.20229 6.70238
30 Ar -0.173148 2.41001 11.3632
31 Ar -0.0321456 6.63038 2.33736
32 Ar -0.0822726 6.68283 6.47901
33 Ar -0.168006 6.75599 11.2557
34 Ar -0.124567 11.2605 1.94116
35 Ar 0.0399376 11.055 6.76086
36 Ar 0.0600566 10.9111 11.2044
37 Ar 4.5984 2.2057 2.0712
38 Ar 4.60768 2.18915 6.90897
39 Ar 4.38153 2.1744 11.1913
40 Ar 4.51673 6.60535 2.36064
41 Ar 4.39613 6.5783 6.6329
42 Ar 4.50637 6.82146 10.8835
43 Ar 4.26202 11.0512 2.33822
44 Ar 4.37228 11.0856 6.5944
45 Ar 4.43534 11.2902 11.1341
46 Ar 8.83218 2.3709 2.22029
47 Ar 8.92722 2.16068 6.69335
48 Ar 9.02716 2.17217 11.1976
49 Ar 8.91564 6.67081 2.20379
50 Ar 8.86119 6.6208 6.89268
51 Ar 8.88847 6.66359 11.1248
52 Ar 9.07287 11.0397 2.21944
53 Ar 8.85028 11.2826 6.69195
54 Ar 8.84258 11.2009 11.0625
55 Ar 2.16894 0.0377311 2.02911
56 Ar 1.93142 0.000737983 6.72929
57 Ar 2.14865 0.172949 11.0933
58 Ar 2.40205 4.57215 2.50273
59 Ar 2.4347 4.34823 6.57672
60 Ar 2.44365 4.44204 11.2023
61 Ar 2.08287 9.0814 2.38445
62 Ar 2.2065 8.91658 6.36518
63 Ar 2.09474 8.80362 11.1053
64 Ar 6.84203 -0.158335 2.24457
65 Ar 6.52634 -0.166876 6.60818
66 Ar 6.83842 0.00167822 11.1546
67 Ar 6.65587 4.56327 2.13724
68 Ar 6.82571 4.37131 6.80876
69 Ar 6.69692 4.27731 11.1664
70 Ar 6.67234 8.77362 1.92275
71 Ar 6.81325 8.8828 6.59375
72 Ar 6.52279 9.07686 10.8992
73 Ar 11.0699 0.083022 2.24646
74 Ar 11.1921 0.0616454 6.46112
75 Ar 11.0311 -0.0290613 11.2237
76 Ar 11.014 4.49499 2.33933
77 Ar 11.2325 4.37779 6.75608
78 Ar 11.1423 4.44325 11.069
79 Ar 11.1443 8.9027 2.15864
80 Ar 10.8771 8.92632 6.7222
81 Ar 11.0595 8.85199 11.1128
82 Ar 2.22626 2.64155 0.174881
83 Ar 2.56103 2.15151 4.3595
84 Ar 2.19991 2.41524 8.90616
85 Ar 2.33156 6.81675 0.00719114
86 Ar 2.16804 6.58513 4.49179
87 Ar 2.20008 6.735 8.76429
88 Ar 2.25786 10.9715 0.090895
89 Ar 2.13356 11.3536 4.33002
90 Ar 2.30578 11.1147 8.91328
91 Ar 6.69743 2.1064 -0.0952937
92 Ar 6.75301 2.24028 4.51001
93 Ar 6.81288 2.02769 9.02731
94 Ar 6.7147 6.63432 -0.348635
95 Ar 6.88522 6.59735 4.62836
96 Ar 6.78192 6.59819 8.88823
97 Ar 6.64687 11.1267 0.077671
98 Ar 6.54442 11.1367 4.37174
99 Ar 6.54886 11.1869 8.70471
100 Ar 11.0437 2.33194 0.0715392
101 Ar 11.0968 2.01293 4.45212
102 Ar 11.0559 2.07818 8.89397
103 Ar 11.1032 6.57595 0.0614739
104 Ar 11.0179 6.68504 4.44933
105 Ar 11.1607 6.70971 9.0251
106 Ar 11.1797 11.0511 -0.208573
107 Ar 11.2751 11.0055 4.37028
108 Ar 11.059 11.0656 9.04669
ITEM: TIMESTEP
18070
ITEM: NUMBER OF ATOMS
108
ITEM: BOX BOUNDS pp pp pp
0.0000000000000000e+00 1.3349999400000000e+01
0.0000000000000000e+00 1.3349999400000000e+01
0.0000000000000000e+00 1.3349999400000000e+01
ITEM: ATOMS id element xu yu zu
1 Ar -0.0405495 0.0170747 -0.0830851
2 Ar 0.168155 0.178143 4.50236
3 Ar -0.094665 -0.0503987 9.00883
4 Ar -0.0457733 4.48897 0.171838
5 Ar -0.0214176 4.45615 4.48831
6 Ar 0.110834 4.47986 9.04712
7 Ar 0.0585828 8.77887 0.138519
8 Ar -0.295973 8.86474 4.57643
9 Ar -0.154053 8.89199 8.88622
10 Ar 4.31106 -0.108182 0.00268772
11 Ar 4.30989 0.0091161 4.42381
12 Ar 4.32997 -0.0286972 8.8424
13 Ar 4.61919 4.67682 0.0637078
14 Ar 4.71042 4.42701 4.50154
15 Ar 4.48961 4.34519 8.98653
16 Ar 4.42746 9.11539 -0.176737
17 Ar 4.56897 8.75902 4.38059
18 Ar 4.34283 8.95844 8.68771
19 Ar 8.89508 -0.250162 0.141825
20 Ar 8.91771 0.0483505 4.43151
21 Ar 8.98229 -0.000724991 8.88926
22 Ar 8.89365 4.49609 -0.0704332
23 Ar 8.94814 4.27658 4.66341
24 Ar 8.90442 4.48523 8.93347
25 Ar 8.80083 8.83591 -0.141664
26 Ar 8.8829 9.15108 4.36415
27 Ar 8.79575 8.97886 8.86092
28 Ar 0.0381076 2.30682 2.16797
29 Ar 0.166236 2.22316 6.72255
30 Ar -0.187631 2.41165 11.3759
31 Ar -0.0142594 6.65347 2.31602
32 Ar -0.0829247 6.673 6.48949
33 Ar -0.158123 6.73991 11.2538
34 Ar -0.111483 11.2715 1.96586
35 Ar 0.0307888 11.0586 6.75882
36 Ar 0.0643121 10.9229 11.206
37 Ar 4.59735 2.19097 2.09064
38 Ar 4.60987 2.19947 6.89119
39 Ar 4.39583 2.18189 11.1742
40 Ar 4.5338 6.59618 2.35638
41 Ar 4.38535 6.56988 6.63796
42 Ar 4.52083 6.81442 10.8723
43 Ar 4.27262 11.0519 2.32465
44 Ar 4.37633 11.0686 6.5854
45 Ar 4.44602 11.2811 11.1195
46 Ar 8.84204 2.35562 2.23589
47 Ar 8.90681 2.16412 6.70195
48 Ar 9.02778 2.15944 11.1995
49 Ar 8.9249 6.6914 2.19242
50 Ar 8.87359 6.64306 6.90804
51 Ar 8.91327 6.64948 11.1268
52 Ar 9.06729 11.0574 2.23444
53 Ar 8.85728 11.292 6.70612
54 Ar 8.83508 11.1922 11.0593
55 Ar 2.16821 0.064963 2.02325
56 Ar 1.93671 -0.00634095 6.72976
57 Ar 2.14573 0.166829 11.0912
58 Ar 2.41216 4.5426 2.50115
59 Ar 2.41656 4.34768 6.57857
60 Ar 2.4267 4.45491 11.1981
61 Ar 2.08299 9.07536 2.38561
62 Ar 2.21532 8.9119 6.37027
63 Ar 2.09613 8.7986 11.1124
64 Ar 6.83982 -0.171371 2.25189
65 Ar 6.51764 -0.163881 6.60307
66 Ar 6.79838 -0.00660128 11.1501
67 Ar 6.65961 4.55334 2.13586
68 Ar 6.82901 4.37232 6.78228
69 Ar 6.69026 4.29827 11.1623
70 Ar 6.66387 8.77603 1.94799
71 Ar 6.81021 8.90255 6.58543
72 Ar 6.52612 9.06965 10.8971
73 Ar 11.0701 0.0818851 2.23964
74 Ar 11.2122 0.0557382 6.46568
75 Ar 11.0231 -0.0337238 11.2266
76 Ar 11.0243 4.49512 2.32743
77 Ar 11.2175 4.37592 6.76288
78 Ar 11.1319 4.43105 11.0768
79 Ar 11.1523 8.91073 2.17114
80 Ar 10.8824 8.9262 6.71286
81 Ar 11.0409 8.86438 11.1042
82 Ar 2.2482 2.65273 0.197461
83 Ar 2.56585 2.1372 4.36422
84 Ar 2.21452 2.44148 8.90958
85 Ar 2.3178 6.80811 0.0024338
86 Ar 2.16509 6.60086 4.49477
87 Ar 2.17847 6.74227 8.76234
88 Ar 2.27167 10.9526 0.0776572
89 Ar 2.13412 11.3525 4.34779
90 Ar 2.31355 11.1155 8.89921
91 Ar 6.72358 2.11761 -0.0749891
92 Ar 6.74381 2.23317 4.48812
93 Ar 6.8135 2.04961 9.01671
94 Ar 6.72249 6.64109 -0.357258
95 Ar 6.88414 6.59966 4.62237
96 Ar 6.78412 6.5937 8.8731
97 Ar 6.64281 11.118 0.0839536
98 Ar 6.56328 11.144 4.35404
99 Ar 6.53224 11.1834 8.70638
100 Ar 11.0607 2.34129 0.0942419
101 Ar 11.1038 2.01503 4.44508
102 Ar 11.0596 2.06233 8.90718
103 Ar 11.1091 6.58335 0.0636852
104 Ar 11.0146 6.67529 4.45366
105 Ar 11.1756 6.70192 9.02803
106 Ar 11.16 11.0382 -0.203999
107 Ar 11.2512 10.9975 4.37655
108 Ar 11.0594 11.0569 9.02972
ITEM: TIMESTEP
18080
ITEM: NUMBER OF ATOMS
108
ITEM: BOX BOUNDS pp pp pp
0.0000000000000000e+00 1.3349999400000000e+01
0.0000000000000000e+00 1.3349999400000000e+01
0.0000000000000000e+00 1.3349999400000000e+01
ITEM: ATOMS id element xu yu zu
1 Ar -0.0414081 0.0446594 -0.0896642
2 Ar 0.18454 0.173672 4.49801
3 Ar -0.0798869 -0.0549541 9.00013
4 Ar -0.0365237 4.49336 0.184859
5 Ar -0.0091575 4.46583 4.48263
6 Ar 0.0998606 4.47908 9.04467
7 Ar 0.0680299 8.7975 0.161858
8 Ar -0.278689 8.85838 4.57591
9 Ar -0.145544 8.88288 8.89178
10 Ar 4.31203 -0.128244 -0.00450194
11 Ar 4.30447 -0.00719679 4.41922
12 Ar 4.31496 -0.0271735 8.85094
13 Ar 4.58959 4.66335 0.0450422
14 Ar 4.70729 4.45144 4.49597
15 Ar 4.45814 4.36585 8.99184
16 Ar 4.42594 9.10027 -0.176186
17 Ar 4.56596 8.77553 4.37069
18 Ar 4.33345 8.93934 8.67589
19 Ar 8.88911 -0.244591 0.156386
20 Ar 8.90612 0.030653 4.4471
21 Ar 8.97632 0.00450418 8.8873
22 Ar 8.89987 4.50359 -0.0693964
23 Ar 8.94463 4.26402 4.66423
24 Ar 8.88604 4.48398 8.94459
25 Ar 8.80393 8.84325 -0.143456
26 Ar 8.88415 9.13531 4.34412
27 Ar 8.79228 8.97145 8.86592
28 Ar 0.0417667 2.30889 2.14776
29 Ar 0.145153 2.24686 6.74263
30 Ar -0.198234 2.4105 11.3856
31 Ar 0.00421338 6.67672 2.29479
32 Ar -0.0832471 6.66268 6.50469
33 Ar -0.145085 6.72194 11.2511
34 Ar -0.0979847 11.2814 1.99428
35 Ar 0.0197837 11.0623 6.7562
36 Ar 0.0686966 10.9375 11.2065
37 Ar 4.59703 2.17606 2.11093
38 Ar 4.61098 2.20941 6.87048