ITEM: TIMESTEP
52000
ITEM: NUMBER OF ATOMS
108
ITEM: BOX BOUNDS pp pp pp
0.0000000000000000e+00 1.3349999400000000e+01
0.0000000000000000e+00 1.3349999400000000e+01
0.0000000000000000e+00 1.3349999400000000e+01
ITEM: ATOMS id element xu yu zu
1 Ar -0.157233 0.207663 -0.069565
2 Ar 0.198626 -0.0618495 4.5698
3 Ar 0.0287488 0.0858598 8.836
4 Ar 0.0690155 4.24656 0.228158
5 Ar 0.234588 4.25807 4.41853
6 Ar 0.0722601 4.46049 8.78153
7 Ar -0.0113452 8.91648 -0.167729
8 Ar -0.00830228 8.9939 4.30671
9 Ar 0.0553564 8.88609 9.05771
10 Ar 4.54026 -0.181031 -0.136634
11 Ar 4.44548 -0.0551365 4.41024
12 Ar 4.53311 -0.127185 9.01138
13 Ar 4.34519 4.41983 -0.188103
14 Ar 4.32897 4.26991 4.36616
15 Ar 4.42288 4.57153 9.07234
16 Ar 4.51101 8.88028 0.0975995
17 Ar 4.42242 8.83776 4.48966
18 Ar 4.5304 8.94282 8.85786
19 Ar 8.73205 -0.00508277 -0.0209717
20 Ar 8.96515 0.154877 4.33311
21 Ar 9.17637 0.0648409 8.89752
22 Ar 8.6235 4.34153 0.0328885
23 Ar 8.86774 4.44689 4.61656
24 Ar 8.8451 4.61077 8.78185
25 Ar 8.8941 8.83491 0.0960835
26 Ar 8.95276 8.93454 4.37991
27 Ar 8.89714 8.8579 8.87067
28 Ar -0.0330808 2.15546 2.41979
29 Ar 0.153341 2.29839 6.65334
30 Ar -0.0305107 2.34169 11.2577
31 Ar -0.12901 6.65999 2.14995
32 Ar 0.0634514 6.73277 6.76782
33 Ar 0.0348886 6.63129 11.0029
34 Ar 0.00630384 11.2013 2.2635
35 Ar -0.060488 11.1484 6.89776
36 Ar -0.0808833 11.2717 11.215
37 Ar 4.36357 2.203 2.11191
38 Ar 4.32099 2.12148 6.84058
39 Ar 4.51721 2.19965 11.0562
40 Ar 4.55345 6.82729 2.36432
41 Ar 4.34998 6.76061 6.76504
42 Ar 4.44808 6.72929 11.1963
43 Ar 4.36629 11.1608 2.21103
44 Ar 4.6198 10.9045 6.65073
45 Ar 4.36252 10.9248 11.1136
46 Ar 8.81442 2.42731 2.44358
47 Ar 8.94348 2.17239 6.71526
48 Ar 9.04426 2.5295 11.094
49 Ar 8.78281 6.59042 2.23778
50 Ar 8.81946 6.67151 6.464
51 Ar 8.88769 6.68058 11.2375
52 Ar 8.91643 11.2222 2.24743
53 Ar 9.11162 11.1148 6.62783
54 Ar 8.92673 11.0507 11.3278
55 Ar 2.26051 -0.110392 2.10575
56 Ar 2.29017 -0.188449 6.67707
57 Ar 2.24715 0.0319773 11.0201
58 Ar 2.32603 4.5326 2.13697
59 Ar 2.25708 4.25841 6.53617
60 Ar 2.26862 4.53772 11.1345
61 Ar 2.38147 8.94029 2.11152
62 Ar 2.16119 8.89724 6.70826
63 Ar 2.18175 8.96968 11.1816
64 Ar 6.47913 0.118585 2.28233
65 Ar 6.63039 -0.180009 6.6895
66 Ar 6.87751 -0.0730791 10.9355
67 Ar 6.40795 4.44542 2.06448
68 Ar 6.43476 4.40881 6.8588
69 Ar 6.78925 4.50683 11.0439
70 Ar 6.79356 8.90512 2.22285
71 Ar 6.77346 8.76674 6.44844
72 Ar 6.58649 8.75309 11.2325
73 Ar 11.2505 0.0733024 2.19211
74 Ar 11.4013 0.123717 6.66216
75 Ar 11.1277 0.183696 11.2254
76 Ar 11.0768 4.33778 2.22103
77 Ar 11.1577 4.61823 6.57408
78 Ar 11.1536 4.46504 11.228
79 Ar 11.09 8.9795 2.12704
80 Ar 11.2201 8.73965 6.51628
81 Ar 11.0784 8.80382 11.2617
82 Ar 2.28615 2.07032 -0.043087
83 Ar 2.24447 2.11968 4.38276
84 Ar 2.22862 2.21924 9.01589
85 Ar 2.12655 6.74008 0.0387448
86 Ar 2.02428 6.68581 4.4151
87 Ar 2.33214 6.79404 8.9511
88 Ar 2.08798 11.3315 -0.0719112
89 Ar 2.1932 11.0467 4.56211
90 Ar 2.03368 11.0045 8.95386
91 Ar 6.69736 2.17454 -0.139858
92 Ar 6.64483 2.42572 4.49109
93 Ar 6.74623 2.23035 8.83561
94 Ar 6.42003 6.47664 0.0961429
95 Ar 6.71767 6.57095 4.41027
96 Ar 6.55867 6.7679 8.91687
97 Ar 6.52369 11.033 0.085663
98 Ar 6.67721 11.2603 4.31426
99 Ar 6.85387 11.0202 8.78223
100 Ar 11.0141 2.19648 0.0230368
101 Ar 11.2236 2.20186 4.58209
102 Ar 11.2852 2.38073 8.70725
103 Ar 11.0243 6.56206 0.0049655
104 Ar 11.157 6.60525 4.29865
105 Ar 11.1721 6.77373 8.78422
106 Ar 11.0078 11.3209 0.109037
107 Ar 11.1932 11.2241 4.47249
108 Ar 10.9854 11.1428 9.11151
ITEM: TIMESTEP
52010
ITEM: NUMBER OF ATOMS
108
ITEM: BOX BOUNDS pp pp pp
0.0000000000000000e+00 1.3349999400000000e+01
0.0000000000000000e+00 1.3349999400000000e+01
0.0000000000000000e+00 1.3349999400000000e+01
ITEM: ATOMS id element xu yu zu
1 Ar -0.154706 0.219821 -0.0755517
2 Ar 0.204561 -0.065932 4.56653
3 Ar 0.0315553 0.077108 8.83431
4 Ar 0.0780962 4.2533 0.247327
5 Ar 0.231998 4.24665 4.4175
6 Ar 0.058066 4.45629 8.79393
7 Ar -0.00145434 8.92405 -0.185194
8 Ar -0.0102357 8.99247 4.27945
9 Ar 0.0563918 8.88213 9.07819
10 Ar 4.55583 -0.176942 -0.119989
11 Ar 4.43285 -0.0599953 4.41586
12 Ar 4.52833 -0.141262 8.98749
13 Ar 4.34566 4.42954 -0.180528
14 Ar 4.33194 4.28296 4.37944
15 Ar 4.41954 4.58455 9.0927
16 Ar 4.5236 8.87214 0.0962667
17 Ar 4.41589 8.83507 4.49159
18 Ar 4.52211 8.93868 8.85744
19 Ar 8.74272 -0.0184442 -0.0258455
20 Ar 8.98277 0.16254 4.33265
21 Ar 9.18355 0.0529278 8.8996
22 Ar 8.62118 4.35212 0.032028
23 Ar 8.85741 4.46171 4.6196
24 Ar 8.83251 4.6023 8.78024
25 Ar 8.90971 8.84527 0.10008
26 Ar 8.94525 8.93437 4.3884
27 Ar 8.90699 8.85941 8.87924
28 Ar -0.0206355 2.13821 2.40245
29 Ar 0.152924 2.30233 6.65462
30 Ar -0.0508039 2.35105 11.2444
31 Ar -0.13557 6.65578 2.11795
32 Ar 0.0559365 6.74737 6.7536
33 Ar 0.0333684 6.63048 10.9761
34 Ar 0.0201174 11.2259 2.24114
35 Ar -0.0326347 11.1576 6.90116
36 Ar -0.0777149 11.2504 11.2158
37 Ar 4.33199 2.19249 2.11785
38 Ar 4.32442 2.111 6.85062
39 Ar 4.51138 2.19708 11.0619
40 Ar 4.53428 6.82171 2.3771
41 Ar 4.34594 6.77207 6.75009
42 Ar 4.44491 6.71391 11.2132
43 Ar 4.36088 11.1752 2.20374
44 Ar 4.62088 10.9111 6.64112
45 Ar 4.38177 10.9233 11.113
46 Ar 8.82605 2.43337 2.41616
47 Ar 8.95657 2.16936 6.70984
48 Ar 9.02618 2.53686 11.0765
49 Ar 8.79378 6.58535 2.23144
50 Ar 8.80803 6.64754 6.44936
51 Ar 8.90707 6.69977 11.2526
52 Ar 8.91654 11.2281 2.23382
53 Ar 9.13083 11.1168 6.63356
54 Ar 8.93086 11.051 11.325
55 Ar 2.26646 -0.117379 2.09829
56 Ar 2.27199 -0.20496 6.70239
57 Ar 2.24348 0.0504614 11.0036
58 Ar 2.32332 4.54659 2.13643
59 Ar 2.25964 4.24662 6.52096
60 Ar 2.26141 4.54341 11.1349
61 Ar 2.38258 8.96387 2.13339
62 Ar 2.16473 8.94041 6.70725
63 Ar 2.16554 8.96529 11.1763
64 Ar 6.461 0.119221 2.26902
65 Ar 6.60622 -0.181 6.71281
66 Ar 6.88427 -0.0859057 10.9461
67 Ar 6.40185 4.45237 2.06752
68 Ar 6.43522 4.41288 6.87631
69 Ar 6.77742 4.5046 11.0535
70 Ar 6.78152 8.90176 2.228
71 Ar 6.75885 8.7873 6.4568
72 Ar 6.59531 8.76264 11.2347
73 Ar 11.2421 0.0744064 2.18214
74 Ar 11.3986 0.116499 6.63804
75 Ar 11.1196 0.176385 11.2336
76 Ar 11.0763 4.32441 2.21744
77 Ar 11.178 4.63451 6.57992
78 Ar 11.1504 4.46413 11.2266
79 Ar 11.0979 8.98362 2.10707
80 Ar 11.2263 8.75215 6.50713
81 Ar 11.0736 8.81142 11.2524
82 Ar 2.29823 2.08084 -0.0398723
83 Ar 2.22911 2.10839 4.40689
84 Ar 2.24976 2.21154 8.99454
85 Ar 2.13591 6.72333 0.0357365
86 Ar 2.02902 6.67441 4.42895
87 Ar 2.33601 6.7505 8.95882
88 Ar 2.09068 11.342 -0.0627087
89 Ar 2.18295 11.0508 4.56054
90 Ar 2.03558 11.0076 8.94948
91 Ar 6.71036 2.15356 -0.112131
92 Ar 6.66683 2.4303 4.49906
93 Ar 6.71658 2.22888 8.83763
94 Ar 6.4283 6.48978 0.0785196
95 Ar 6.71559 6.57624 4.41489
96 Ar 6.56177 6.78923 8.92404
97 Ar 6.51956 11.035 0.0815117
98 Ar 6.66589 11.2629 4.31596
99 Ar 6.84568 11.0153 8.76111
100 Ar 11.0027 2.22423 0.0248893
101 Ar 11.2369 2.19714 4.57381
102 Ar 11.2844 2.38469 8.71464
103 Ar 11.0319 6.51889 0.0279071
104 Ar 11.1537 6.60453 4.30717
105 Ar 11.1654 6.75735 8.78703
106 Ar 11.0072 11.3178 0.126931
107 Ar 11.2077 11.2006 4.47138
108 Ar 10.989 11.1202 9.1339
ITEM: TIMESTEP
52020
ITEM: NUMBER OF ATOMS
108
ITEM: BOX BOUNDS pp pp pp
0.0000000000000000e+00 1.3349999400000000e+01
0.0000000000000000e+00 1.3349999400000000e+01
0.0000000000000000e+00 1.3349999400000000e+01
ITEM: ATOMS id element xu yu zu
1 Ar -0.14863 0.229741 -0.0796713
2 Ar 0.208515 -0.0700555 4.56149
3 Ar 0.0337585 0.068643 8.83575
4 Ar 0.086287 4.2616 0.263609
5 Ar 0.225271 4.2398 4.41531
6 Ar 0.0448149 4.45309 8.80771
7 Ar 0.00737862 8.93169 -0.198903
8 Ar -0.0120648 8.98952 4.25314
9 Ar 0.0541046 8.87867 9.09671
10 Ar 4.57047 -0.169911 -0.104674
11 Ar 4.41914 -0.0634367 4.42356
12 Ar 4.52277 -0.156215 8.96273
13 Ar 4.3466 4.43782 -0.171246
14 Ar 4.33614 4.29891 4.39408
15 Ar 4.41595 4.59532 9.11078
16 Ar 4.534 8.86394 0.0939064
17 Ar 4.40955 8.83355 4.49281
18 Ar 4.51268 8.93501 8.85798
19 Ar 8.75414 -0.0302692 -0.0289765
20 Ar 8.99906 0.168181 4.33412
21 Ar 9.1882 0.0416948 8.90118
22 Ar 8.62282 4.36506 0.0323146
23 Ar 8.84773 4.47507 4.62065
24 Ar 8.82183 4.59386 8.77872
25 Ar 8.924 8.85576 0.103343
26 Ar 8.93854 8.93458 4.39617
27 Ar 8.91724 8.85984 8.88771
28 Ar -0.00642359 2.12055 2.38233
29 Ar 0.151783 2.30392 6.65656
30 Ar -0.0697579 2.36065 11.228
31 Ar -0.140424 6.65241 2.0867
32 Ar 0.0498011 6.76075 6.73782
33 Ar 0.0307505 6.62845 10.9524
34 Ar 0.0338613 11.2494 2.21712
35 Ar -0.00707882 11.1641 6.90199
36 Ar -0.0756285 11.2291 11.2154
37 Ar 4.30128 2.18187 2.12406
38 Ar 4.3299 2.10004 6.8589
39 Ar 4.50626 2.194 11.068
40 Ar 4.5124 6.81365 2.38894
41 Ar 4.34237 6.78106 6.73247
42 Ar 4.44032 6.69968 11.2294
43 Ar 4.35667 11.188 2.19753
44 Ar 4.61939 10.9202 6.63164
45 Ar 4.40246 10.9242 11.1122
46 Ar 8.83728 2.43697 2.38588
47 Ar 8.96871 2.16684 6.704
48 Ar 9.00644 2.53933 11.0568
49 Ar 8.80599 6.57961 2.22475
50 Ar 8.79847 6.62504 6.43915
51 Ar 8.92559 6.71813 11.2659
52 Ar 8.91561 11.2343 2.22075
53 Ar 9.14863 11.1197 6.63918
54 Ar 8.93335 11.0507 11.3204
55 Ar 2.2713 -0.121499 2.09327
56 Ar 2.25563 -0.219863 6.72953
57 Ar 2.23927 0.0676423 10.9884
58 Ar 2.32065 4.55992 2.13687
59 Ar 2.26436 4.23976 6.50964
60 Ar 2.25121 4.54736 11.1354
61 Ar 2.37951 8.98728 2.15616
62 Ar 2.16809 8.98323 6.70596
63 Ar 2.15117 8.95951 11.1716
64 Ar 6.44659 0.12005 2.25457
65 Ar 6.58433 -0.178704 6.73503
66 Ar 6.88953 -0.0982523 10.9574
67 Ar 6.39697 4.45692 2.07406
68 Ar 6.43646 4.41848 6.89082
69 Ar 6.7631 4.50227 11.0627
70 Ar 6.7681 8.89874 2.23441
71 Ar 6.74419 8.80978 6.46707
72 Ar 6.60676 8.77442 11.2364
73 Ar 11.231 0.0758292 2.17462
74 Ar 11.3921 0.107183 6.61451
75 Ar 11.11 0.167903 11.239
76 Ar 11.0763 4.31224 2.21507
77 Ar 11.1988 4.64899 6.58612
78 Ar 11.1484 4.46517 11.2234
79 Ar 11.1069 8.98685 2.08811
80 Ar 11.2315 8.76704 6.49941
81 Ar 11.0693 8.81979 11.2419
82 Ar 2.30962 2.09231 -0.037185
83 Ar 2.21627 2.09536 4.43048
84 Ar 2.27032 2.20498 8.97252
85 Ar 2.14611 6.70641 0.0320804
86 Ar 2.03584 6.66365 4.44251
87 Ar 2.33826 6.70653 8.96577
88 Ar 2.09425 11.3494 -0.0543222
89 Ar 2.17419 11.0547 4.55727
90 Ar 2.0418 11.013 8.94588
91 Ar 6.72129 2.1322 -0.0841038
92 Ar 6.68729 2.43175 4.50818
93 Ar 6.68721 2.22592 8.84104
94 Ar 6.44025 6.50678 0.0592451
95 Ar 6.71072 6.58071 4.41953
96 Ar 6.5673 6.80977 8.93044
97 Ar 6.51925 11.0378 0.0763114
98 Ar 6.65591 11.2632 4.31884
99 Ar 6.83748 11.0105 8.74244
100 Ar 10.9902 2.25361 0.0283414
101 Ar 11.2492 2.19407 4.56433
102 Ar 11.2818 2.38849 8.72458
103 Ar 11.0407 6.47634 0.0515414
104 Ar 11.1509 6.60446 4.31565
105 Ar 11.1571 6.73981 8.79203
106 Ar 11.0092 11.3124 0.142737
107 Ar 11.2221 11.1772 4.46948
108 Ar 10.9956 11.0963 9.15442
ITEM: TIMESTEP
52030
ITEM: NUMBER OF ATOMS
108
ITEM: BOX BOUNDS pp pp pp
0.0000000000000000e+00 1.3349999400000000e+01
0.0000000000000000e+00 1.3349999400000000e+01
0.0000000000000000e+00 1.3349999400000000e+01
ITEM: ATOMS id element xu yu zu
1 Ar -0.139294 0.237504 -0.0822514
2 Ar 0.21034 -0.0742226 4.55474
3 Ar 0.0348561 0.0607137 8.8403
4 Ar 0.0934871 4.27097 0.276434
5 Ar 0.214516 4.23753 4.41168
6 Ar 0.0328647 4.45088 8.82239
7 Ar 0.0149855 8.939 -0.208548
8 Ar -0.0136355 8.98493 4.22788
9 Ar 0.0486446 8.87578 9.11253
10 Ar 4.58369 -0.159992 -0.0912551
11 Ar 4.40456 -0.0653732 4.4333
12 Ar 4.51643 -0.171984 8.9379
13 Ar 4.34815 4.44441 -0.16026
14 Ar 4.34163 4.31716 4.40977
15 Ar 4.4125 4.60356 9.12617
16 Ar 4.54176 8.85582 0.0907677
17 Ar 4.40347 8.83339 4.49325
18 Ar 4.50196 8.93177 8.85953
19 Ar 8.76629 -0.0403634 -0.0303678
20 Ar 9.01371 0.171657 4.33731
21 Ar 9.19033 0.0311919 8.90215
22 Ar 8.62804 4.38006 0.0334136
23 Ar 8.83907 4.48627 4.6193
24 Ar 8.81309 4.58559 8.77737
25 Ar 8.93676 8.86621 0.105961
26 Ar 8.93263 8.93518 4.40304
27 Ar 8.9277 8.85916 8.89579
28 Ar 0.00950322 2.1027 2.35983
29 Ar 0.14967 2.30307 6.65941
30 Ar -0.0870216 2.37028 11.209
31 Ar -0.143359 6.65015 2.05707
32 Ar 0.0453535 6.77299 6.72095
33 Ar 0.0269122 6.62516 10.9324
34 Ar 0.0471209 11.2715 2.19184
35 Ar 0.0153301 11.1677 6.90019
36 Ar -0.0745185 11.2086 11.214
37 Ar 4.27195 2.17162 2.13095
38 Ar 4.33741 2.08884 6.86494
39 Ar 4.50202 2.19037 11.0746
40 Ar 4.48821 6.80331 2.39943
41 Ar 4.33921 6.7875 6.71269
42 Ar 4.43448 6.68721 11.2447
43 Ar 4.35391 11.1987 2.1925
44 Ar 4.61513 10.9315 6.62238
45 Ar 4.42407 10.9275 11.1112
46 Ar 8.84771 2.43793 2.35354
47 Ar 8.97979 2.16489 6.69802
48 Ar 8.98528 2.53691 11.0353
49 Ar 8.8191 6.57348 2.21795
50 Ar 8.79078 6.6049 6.43395
51 Ar 8.94295 6.73522 11.2772
52 Ar 8.91339 11.2404 2.20879
53 Ar 9.16481 11.1235 6.64466
54 Ar 8.93418 11.0497 11.3141
55 Ar 2.27497 -0.122393 2.09086
56 Ar 2.24146 -0.232742 6.75783
57 Ar 2.23459 0.0831932 10.9751
58 Ar 2.31817 4.5723 2.1387
59 Ar 2.27105 4.23793 6.50259
60 Ar 2.23811 4.54912 11.1364
61 Ar 2.37246 9.01001 2.17917
62 Ar 2.17114 9.02463 6.70458
63 Ar 2.13948 8.95248 11.1677
64 Ar 6.4362 0.121037 2.23974
65 Ar 6.56531 -0.173022 6.75558
66 Ar 6.89303 -0.10995 10.9689
67 Ar 6.39329 4.45915 2.08379
68 Ar 6.43822 4.42556 6.90224
69 Ar 6.74666 4.49996 11.0715
70 Ar 6.75359 8.89603 2.24193
71 Ar 6.73 8.83359 6.47905
72 Ar 6.62063 8.78823 11.2374
73 Ar 11.2174 0.0777033 2.16957
74 Ar 11.3822 0.0958675 6.59209
75 Ar 11.0992 0.158438 11.2416
76 Ar 11.0769 4.30145 2.21449
77 Ar 11.2197 4.66125 6.59245
78 Ar 11.1472 4.46813 11.2182
79 Ar 11.1169 8.98903 2.07054
80 Ar 11.2356 8.78401 6.49344
81 Ar 11.0657 8.82852 11.2309
82 Ar 2.31993 2.10459 -0.0353837
83 Ar 2.2063 2.08081 4.45321
84 Ar 2.28984 2.19986 8.95014
85 Ar 2.15692 6.69003 0.027864
86 Ar 2.04441 6.65377 4.4556
87 Ar 2.33875 6.66308 8.97132
88 Ar 2.09889 11.3537 -0.0474721
89 Ar 2.16705 11.0585 4.55221
90 Ar 2.05235 11.0206 8.94369
91 Ar 6.73013 2.11108 -0.0561967
92 Ar 6.70591 2.43001 4.51819
93 Ar 6.65857 2.22143 8.84584
94 Ar 6.45577 6.52723 0.0391328
95 Ar 6.70302 6.58456 4.42397
96 Ar 6.57513 6.82921 8.93605
97 Ar 6.52284 11.0413 0.0702541
98 Ar 6.64755 11.2615 4.32276
99 Ar 6.82951 11.0055 8.7266
100 Ar 10.9767 2.28391 0.0328537
101 Ar 11.2605 2.19285 4.55364
102 Ar 11.2771 2.39178 8.73672
103 Ar 11.0504 6.43515 0.0751285
104 Ar 11.1488 6.60509 4.32367
105 Ar 11.1471 6.72153 8.79894
106 Ar 11.014 11.3049 0.155903
107 Ar 11.2361 11.1543 4.46653
108 Ar 11.0053 11.0716 9.1726
ITEM: TIMESTEP
52040
ITEM: NUMBER OF ATOMS
108
ITEM: BOX BOUNDS pp pp pp
0.0000000000000000e+00 1.3349999400000000e+01
0.0000000000000000e+00 1.3349999400000000e+01
0.0000000000000000e+00 1.3349999400000000e+01
ITEM: ATOMS id element xu yu zu
1 Ar -0.127104 0.243229 -0.0837058
2 Ar 0.209917 -0.0784412 4.54635
3 Ar 0.0343605 0.0535047 8.84789
4 Ar 0.0996198 4.28091 0.285311
5 Ar 0.200022 4.2397 4.40647
6 Ar 0.022503 4.44956 8.83747
7 Ar 0.0212356 8.94559 -0.213902
8 Ar -0.0148122 8.97864 4.20377
9 Ar 0.0402641 8.87358 9.12494
10 Ar 4.595 -0.147343 -0.0802211
11 Ar 4.38939 -0.0657883 4.44492
12 Ar 4.5093 -0.188482 8.91383
13 Ar 4.35044 4.44916 -0.147602
14 Ar 4.34846 4.33709 4.42622
15 Ar 4.40956 4.60901 9.1386
16 Ar 4.54652 8.84798 0.0870972
17 Ar 4.39772 8.83477 4.49286
18 Ar 4.48983 8.92886 8.86206
19 Ar 8.77913 -0.0485741 -0.0300825
20 Ar 9.02642 0.17288 4.34201
21 Ar 9.19 0.0214046 8.90241
22 Ar 8.63632 4.39677 0.0349235
23 Ar 8.83173 4.49473 4.61521
24 Ar 8.80626 4.5776 8.77629
25 Ar 8.94776 8.87647 0.108037
26 Ar 8.92751 8.93615 4.40887
27 Ar 8.93817 8.85739 8.90318
28 Ar 0.0270448 2.08496 2.33544
29 Ar 0.146403 2.2998 6.66336
30 Ar -0.102322 2.37967 11.1879
31 Ar -0.144131 6.6493 2.02987
32 Ar 0.042798 6.78423 6.70343
33 Ar 0.0217715 6.62065 10.9167
34 Ar 0.0594723 11.2918 2.16571
35 Ar 0.0338346 11.1682 6.8958
36 Ar -0.0742287 11.1894 11.2117
37 Ar 4.24449 2.16218 2.13892
38 Ar 4.34688 2.0777 6.86825
39 Ar 4.49875 2.18618 11.0817
40 Ar 4.46216 6.79095 2.4082
41 Ar 4.33641 6.79142 6.69136
42 Ar 4.42758 6.67699 11.2586
43 Ar 4.35278 11.2071 2.18871
44 Ar 4.60794 10.9449 6.61338
45 Ar 4.44609 10.9333 11.11
46 Ar 8.85695 2.43608 2.31996
47 Ar 8.98969 2.16359 6.69218
48 Ar 8.963 2.52974 11.0127
49 Ar 8.83277 6.56727 2.21131
50 Ar 8.78495 6.58793 6.43417
51 Ar 8.9589 6.75062 11.2866
52 Ar 8.90971 11.2464 2.19842
53 Ar 9.17916 11.1282 6.64997
54 Ar 8.93337 11.0482 11.3063
55 Ar 2.27747 -0.119861 2.09116
56 Ar 2.22974 -0.243189 6.7866
57 Ar 2.22953 0.0968679 10.9638
58 Ar 2.31595 4.58341 2.1423
59 Ar 2.27942 4.24104 6.50003
60 Ar 2.22228 4.54826 11.1381
61 Ar 2.36169 9.03158 2.20176
62 Ar 2.17383 9.06358 6.7033
63 Ar 2.13114 8.94432 11.1644
64 Ar 6.43 0.12209 2.22539
65 Ar 6.54972 -0.163952 6.77387
66 Ar 6.89454 -0.120838 10.9804
67 Ar 6.39083 4.45926 2.09634
68 Ar 6.4403 4.43402 6.91058
69 Ar 6.72847 4.49774 11.08
70 Ar 6.73824 8.89358 2.25041
71 Ar 6.71672 8.85813 6.49246
72 Ar 6.63667 8.80383 11.2375
73 Ar 11.2016 0.080138 2.16689
74 Ar 11.3691 0.0827004 6.57127
75 Ar 11.0875 0.148203 11.2418
76 Ar 11.0784 4.2922 2.21625
77 Ar 11.2403 4.67089 6.59874
78 Ar 11.1467 4.47293 11.2112
79 Ar 11.1278 8.98998 2.05467
80 Ar 11.2388 8.80265 6.48952
81 Ar 11.063 8.83721 11.2199
82 Ar 2.32879 2.11753 -0.0347978
83 Ar 2.19937 2.06512 4.47485
84 Ar 2.30794 2.19641 8.92777
85 Ar 2.1681 6.6748 0.0231723
86 Ar 2.05441 6.64498 4.46805
87 Ar 2.33735 6.6211 8.97491
88 Ar 2.10481 11.3548 -0.0427816
89 Ar 2.16157 11.0623 4.5453
90 Ar 2.06709 11.0298 8.94352
91 Ar 6.73693 2.09086 -0.0288703
92 Ar 6.72244 2.42507 4.52882
93 Ar 6.63107 2.21544 8.85203
94 Ar 6.47471 6.55058 0.0189796
95 Ar 6.69255 6.588 4.42808
96 Ar 6.58508 6.84725 8.94087
97 Ar 6.5303 11.0454 0.0635629
98 Ar 6.64099 11.2581 4.32759
99 Ar 6.82199 11.0002 8.7139
100 Ar 10.9627 2.3144 0.0377973
101 Ar 11.2707 2.19357 4.54176
102 Ar 11.2703 2.39426 8.75065
103 Ar 11.0609 6.39602 0.0979014
104 Ar 11.1475 6.60649 4.33088
105 Ar 11.1356 6.70292 8.80746
106 Ar 11.0217 11.2955 0.165949
107 Ar 11.2497 11.1322 4.46227
108 Ar 11.0179 11.0468 9.18792
ITEM: TIMESTEP
52050
ITEM: NUMBER OF ATOMS
108
ITEM: BOX BOUNDS pp pp pp
0.0000000000000000e+00 1.3349999400000000e+01
0.0000000000000000e+00 1.3349999400000000e+01
0.0000000000000000e+00 1.3349999400000000e+01
ITEM: ATOMS id element xu yu zu
1 Ar -0.112553 0.247049 -0.084514
2 Ar 0.207153 -0.0827165 4.5365
3 Ar 0.03183 0.0471249 8.85835
4 Ar 0.10464 4.2909 0.289856
5 Ar 0.182237 4.24604 4.39964
6 Ar 0.0139385 4.44905 8.85242
7 Ar 0.0260546 8.95109 -0.214839
8 Ar -0.0154871 8.97061 4.18099
9 Ar 0.029315 8.87211 9.1334
10 Ar 4.60398 -0.132228 -0.0719571
11 Ar 4.37399 -0.0647351 4.4582
12 Ar 4.50139 -0.205579 8.89131
13 Ar 4.35365 4.45199 -0.13334
14 Ar 4.35664 4.35808 4.44316
15 Ar 4.40749 4.61144 9.14786
16 Ar 4.54804 8.84067 0.0831251
17 Ar 4.39238 8.8378 4.49158
18 Ar 4.47627 8.92615 8.86555
19 Ar 8.79266 -0.0547943 -0.0282432
20 Ar 9.03692 0.171811 4.348
21 Ar 9.18728 0.012268 8.90186
22 Ar 8.64709 4.41478 0.0364111
23 Ar 8.82593 4.50004 4.60812
24 Ar 8.80129 4.56995 8.77558
25 Ar 8.95686 8.88637 0.10968
26 Ar 8.92314 8.93743 4.41358
27 Ar 8.94848 8.8546 8.90959
28 Ar 0.0460448 2.06767 2.30968
29 Ar 0.141871 2.29422 6.66852
30 Ar -0.115461 2.38848 11.1652
31 Ar -0.142482 6.65014 2.00588
32 Ar 0.0422332 6.79461 6.68572
33 Ar 0.0152971 6.61508 10.9058
34 Ar 0.0705059 11.3103 2.1392
35 Ar 0.0478194 11.1657 6.88893
36 Ar -0.0745559 11.1722 11.2087
37 Ar 4.21939 2.15394 2.14834
38 Ar 4.35821 2.06692 6.86839
39 Ar 4.49652 2.18143 11.0892
40 Ar 4.43473 6.77693 2.41491
41 Ar 4.33395 6.79291 6.6691
42 Ar 4.41984 6.66941 11.2708
43 Ar 4.35346 11.213 2.18615
44 Ar 4.59783 10.9601 6.60473
45 Ar 4.46808 10.9413 11.1087
46 Ar 8.86464 2.43128 2.28598
47 Ar 8.99837 2.16301 6.6867
48 Ar 8.93987 2.51806 10.9895
49 Ar 8.84663 6.56131 2.20512
50 Ar 8.78093 6.57471 6.43997
51 Ar 8.97325 6.764 11.294
52 Ar 8.90446 11.2521 2.19005
53 Ar 9.19151 11.1338 6.65507
54 Ar 8.93103 11.0462 11.2972
55 Ar 2.27886 -0.113896 2.09411
56 Ar 2.22061 -0.250833 6.81506
57 Ar 2.22419 0.108507 10.9549
58 Ar 2.31402 4.59292 2.14797
59 Ar 2.28905 4.24887 6.50201
60 Ar 2.20404 4.54443 11.1406
61 Ar 2.34758 9.05156 2.22332
62 Ar 2.17612 9.09916 6.70221
63 Ar 2.12667 8.93516 11.1617
64 Ar 6.42806 0.123054 2.21239
65 Ar 6.5381 -0.151602 6.78941
66 Ar 6.8939 -0.130758 10.9915
67 Ar 6.38963 4.45744 2.11127
68 Ar 6.44253 4.4437 6.9159
69 Ar 6.70899 4.49566 11.0881
70 Ar 6.7223 8.89136 2.25967
71 Ar 6.70474 8.88281 6.50699
72 Ar 6.65457 8.82099 11.2368
73 Ar 11.1838 0.0832074 2.16644
74 Ar 11.3534 0.0678845 6.55244
75 Ar 11.0751 0.137422 11.24
76 Ar 11.0811 4.2846 2.22088
77 Ar 11.2603 4.67758 6.60478
78 Ar 11.1463 4.4794 11.2022
79 Ar 11.1396 8.98956 2.0408
80 Ar 11.241 8.82254 6.48787
81 Ar 11.0615 8.84545 11.2095
82 Ar 2.3359 2.13101 -0.0357063
83 Ar 2.19547 2.04878 4.49527
84 Ar 2.32426 2.19479 8.90578
85 Ar 2.17942 6.66126 0.0180942
86 Ar 2.06549 6.63748 4.4797
87 Ar 2.33392 6.58144 8.97606
88 Ar 2.11224 11.3527 -0.0407393
89 Ar 2.15777 11.0665 4.53654
90 Ar 2.08569 11.0404 8.94589
91 Ar 6.74182 2.07227 -0.00262299
92 Ar 6.73667 2.41693 4.53983
93 Ar 6.60508 2.20809 8.85956
94 Ar 6.49686 6.57626 -0.000483369
95 Ar 6.67953 6.59124 4.43178
96 Ar 6.59689 6.86366 8.94492
97 Ar 6.54145 11.0497 0.0564856
98 Ar 6.63637 11.2533 4.33322
99 Ar 6.8151 10.9948 8.70458
100 Ar 10.9485 2.3443 0.0424861
101 Ar 11.2797 2.19625 4.5288
102 Ar 11.2615 2.39568 8.76597
103 Ar 11.0717 6.3596 0.119093
104 Ar 11.1471 6.60873 4.33703
105 Ar 11.1227 6.68436 8.81729
106 Ar 11.0323 11.2843 0.172488
107 Ar 11.2626 11.1111 4.45648
108 Ar 11.0333 11.0225 9.1999
ITEM: TIMESTEP
52060
ITEM: NUMBER OF ATOMS
108
ITEM: BOX BOUNDS pp pp pp
0.0000000000000000e+00 1.3349999400000000e+01
0.0000000000000000e+00 1.3349999400000000e+01
0.0000000000000000e+00 1.3349999400000000e+01
ITEM: ATOMS id element xu yu zu
1 Ar -0.0961844 0.24909 -0.0851974
2 Ar 0.201982 -0.0870423 4.52539
3 Ar 0.0268966 0.0416042 8.87143
4 Ar 0.108536 4.30047 0.289812
5 Ar 0.161745 4.25618 4.39125
6 Ar 0.00729474 4.4492 8.8667
7 Ar 0.0294408 8.95524 -0.211359
8 Ar -0.015588 8.96083 4.15973
9 Ar 0.0162436 8.87139 9.13748
10 Ar 4.61027 -0.115011 -0.0667165
11 Ar 4.35876 -0.0623319 4.47285
12 Ar 4.49275 -0.223092 8.87105
13 Ar 4.35793 4.45291 -0.117576
14 Ar 4.36616 4.37948 4.46032
15 Ar 4.40659 4.61072 9.15383
16 Ar 4.54617 8.83415 0.0790555
17 Ar 4.38753 8.84257 4.48937
18 Ar 4.46129 8.92346 8.86992
19 Ar 8.80686 -0.0589651 -0.025027
20 Ar 9.04499 0.168456 4.35509
21 Ar 9.18226 0.00368274 8.90042
22 Ar 8.65969 4.43367 0.0374471
23 Ar 8.82185 4.50203 4.59793
24 Ar 8.79807 4.56264 8.77534
25 Ar 8.96394 8.8958 0.111011
26 Ar 8.91949 8.93896 4.41715
27 Ar 8.95847 8.85091 8.91477
28 Ar 0.0662838 2.05121 2.28313
29 Ar 0.136029 2.28653 6.67491
30 Ar -0.12631 2.39633 11.1416
31 Ar -0.138146 6.6529 1.98576
32 Ar 0.0436562 6.80428 6.66822
33 Ar 0.00751425 6.60869 10.9001
34 Ar 0.0798525 11.3265 2.11275
35 Ar 0.0568564 11.1605 6.87981
36 Ar -0.0752543 11.1573 11.2051
37 Ar 4.19711 2.14726 2.1595
38 Ar 4.37124 2.05686 6.865
39 Ar 4.49531 2.17617 11.0973
40 Ar 4.40642 6.76167 2.41928
41 Ar 4.33183 6.79218 6.64661
42 Ar 4.41148 6.66468 11.2809
43 Ar 4.35605 11.2164 2.18479
44 Ar 4.58487 10.977 6.59649
45 Ar 4.48967 10.9515 11.1074
46 Ar 8.87049 2.42347 2.25244
47 Ar 9.00581 2.16326 6.68178
48 Ar 8.91617 2.5022 10.9662
49 Ar 8.86034 6.55591 2.19967
50 Ar 8.77864 6.56564 6.45129
51 Ar 8.98589 6.77507 11.2993
52 Ar 8.89764 11.2572 2.18397
53 Ar 9.20165 11.1402 6.65995
54 Ar 8.92732 11.0437 11.2869
55 Ar 2.27926 -0.1047 2.09955
56 Ar 2.21405 -0.255362 6.84246
57 Ar 2.21867 0.118038 10.9487
58 Ar 2.3123 4.60053 2.15593
59 Ar 2.29947 4.26101 6.50845
60 Ar 2.18381 4.53738 11.1443
61 Ar 2.33055 9.06955 2.24325
62 Ar 2.17803 9.13054 6.70141
63 Ar 2.12635 8.92512 11.1594
64 Ar 6.43037 0.12373 2.20158
65 Ar 6.53092 -0.136211 6.80179
66 Ar 6.89102 -0.139567 11.002
67 Ar 6.38976 4.45395 2.12813
68 Ar 6.44478 4.45438 6.91831
69 Ar 6.68869 4.49373 11.096
70 Ar 6.706 8.88927 2.26951
71 Ar 6.69432 8.90708 6.5223
72 Ar 6.67399 8.83945 11.235
73 Ar 11.1646 0.086942 2.16795
74 Ar 11.3356 0.0516776 6.53592
75 Ar 11.0625 0.126316 11.2364
76 Ar 11.0851 4.2787 2.22884
77 Ar 11.2793 4.6811 6.61043
78 Ar 11.1456 4.48729 11.1914
79 Ar 11.152 8.98764 2.02916
80 Ar 11.2422 8.8432 6.48869
81 Ar 11.0613 8.85289 11.2004
82 Ar 2.34103 2.1449 -0.0383166
83 Ar 2.19446 2.03239 4.51443
84 Ar 2.33855 2.19507 8.88453
85 Ar 2.19062 6.64984 0.0127298
86 Ar 2.07734 6.63143 4.4904
87 Ar 2.32839 6.54489 8.9744
88 Ar 2.12139 11.3477 -0.0416751
89 Ar 2.15558 11.0711 4.52599
90 Ar 2.10767 11.0518 8.95119
91 Ar 6.74491 2.05602 0.022017
92 Ar 6.74844 2.40566 4.55097
93 Ar 6.58092 2.19955 8.86834
94 Ar 6.52194 6.60367 -0.0186269
95 Ar 6.66431 6.59448 4.43504
96 Ar 6.61027 6.8782 8.94823
97 Ar 6.55598 11.0543 0.0492868
98 Ar 6.63375 11.2475 4.33956
99 Ar 6.80898 10.9893 8.69881
100 Ar 10.9347 2.37292 0.0462159
101 Ar 11.2875 2.20076 4.51486
102 Ar 11.2505 2.39585 8.78223
103 Ar 11.0824 6.32646 0.137971
104 Ar 11.1475 6.61186 4.34197
105 Ar 11.1085 6.6662 8.8281
106 Ar 11.0456 11.2717 0.17525
107 Ar 11.2749 11.0915 4.44895
108 Ar 11.0512 10.9993 9.20806
ITEM: TIMESTEP
52070
ITEM: NUMBER OF ATOMS
108
ITEM: BOX BOUNDS pp pp pp
0.0000000000000000e+00 1.3349999400000000e+01
0.0000000000000000e+00 1.3349999400000000e+01
0.0000000000000000e+00 1.3349999400000000e+01
ITEM: ATOMS id element xu yu zu
1 Ar -0.0785587 0.249457 -0.0862926
2 Ar 0.194365 -0.0913914 4.51325
3 Ar 0.0192894 0.0368985 8.88682
4 Ar 0.111327 4.30921 0.285067
5 Ar 0.139224 4.26971 4.38147
6 Ar 0.00260794 4.44989 8.87978
7 Ar 0.031474 8.95781 -0.203605
8 Ar -0.0150847 8.94934 4.14027
9 Ar 0.00158062 8.87132 9.13693
10 Ar 4.61359 -0.0961334 -0.0645962
11 Ar 4.34413 -0.0587566 4.48854
12 Ar 4.48348 -0.240764 8.85369
13 Ar 4.36344 4.452 -0.100454
14 Ar 4.37695 4.4007 4.47749
15 Ar 4.40708 4.60679 9.15652
16 Ar 4.54092 8.82869 0.0750616
17 Ar 4.38324 8.84911 4.48621
18 Ar 4.445 8.92061 8.87506
19 Ar 8.82168 -0.0610761 -0.0206591
20 Ar 9.05045 0.162865 4.36307
21 Ar 9.17503 -0.00447097 8.89805
22 Ar 8.67345 4.45299 0.0376401
23 Ar 8.81954 4.50076 4.58474
24 Ar 8.79643 4.55564 8.77568
25 Ar 8.96898 8.90462 0.112156
26 Ar 8.91649 8.94061 4.41956
27 Ar 8.96803 8.84646 8.91848
28 Ar 0.0874743 2.03602 2.25638
29 Ar 0.128887 2.27699 6.68246
30 Ar -0.134806 2.40283 11.1178
31 Ar -0.130884 6.6577 1.97006
32 Ar 0.0469692 6.81337 6.65133
33 Ar -0.00149189 6.60183 10.8997
34 Ar 0.0872114 11.3405 2.08681
35 Ar 0.0607372 11.1526 6.86873
36 Ar -0.0760421 11.1451 11.2011
37 Ar 4.17806 2.14243 2.17259
38 Ar 4.38577 2.04786 6.85784
39 Ar 4.49508 2.17046 11.1058
40 Ar 4.37775 6.74567 2.42109
41 Ar 4.3301 6.78948 6.62455
42 Ar 4.40273 6.66287 11.2888
43 Ar 4.36057 11.2174 2.18454
44 Ar 4.56931 10.9954 6.58873
45 Ar 4.51051 10.9638 11.1062
46 Ar 8.87426 2.41266 2.22014
47 Ar 9.01204 2.16442 6.67761
48 Ar 8.89214 2.48256 10.9434
49 Ar 8.87357 6.5514 2.19525
50 Ar 8.77801 6.5609 6.46775
51 Ar 8.99674 6.78363 11.3027
52 Ar 8.88936 11.2615 2.18038
53 Ar 9.20938 11.1472 6.66457
54 Ar 8.92249 11.0409 11.2754
55 Ar 2.27885 -0.0926844 2.10722
56 Ar 2.20984 -0.256558 6.86805
57 Ar 2.21308 0.125469 10.9453
58 Ar 2.31062 4.60591 2.16628
59 Ar 2.31015 4.27695 6.51911
60 Ar 2.1621 4.527 11.1492
61 Ar 2.31109 9.0852 2.26099
62 Ar 2.17961 9.15704 6.70096
63 Ar 2.13023 8.91431 11.1574
64 Ar 6.43679 0.123878 2.19375
65 Ar 6.52856 -0.118143 6.81069
66 Ar 6.88589 -0.147128 11.0118
67 Ar 6.39131 4.44902 2.14649
68 Ar 6.44701 4.46583 6.91798
69 Ar 6.66804 4.49194 11.1038
70 Ar 6.68952 8.88727 2.27973
71 Ar 6.68563 8.93041 6.53803
72 Ar 6.69456 8.85895 11.2321
73 Ar 11.1443 0.0913246 2.17114
74 Ar 11.3161 0.0343916 6.52194
75 Ar 11.0499 0.115094 11.2315
76 Ar 11.0904 4.27449 2.24046
77 Ar 11.297 4.6813 6.61557
78 Ar 11.1443 4.4963 11.179
79 Ar 11.165 8.98412 2.01992
80 Ar 11.2427 8.86414 6.4921
81 Ar 11.0626 8.85916 11.1929
82 Ar 2.34404 2.15908 -0.0427449
83 Ar 2.19605 2.01661 4.53236
84 Ar 2.35063 2.19728 8.86439
85 Ar 2.20145 6.64082 0.00719456
86 Ar 2.08962 6.62698 4.5
87 Ar 2.32069 6.51212 8.96972
88 Ar 2.13248 11.3399 -0.0457505
89 Ar 2.15489 11.0765 4.51379
90 Ar 2.13241 11.0636 8.95967
91 Ar 6.74636 2.0428 0.0445086
92 Ar 6.75765 2.39136 4.56201
93 Ar 6.55884 2.19006 8.87826
94 Ar 6.54959 6.63224 -0.0349427
95 Ar 6.64735 6.59793 4.43792
96 Ar 6.62486 6.89074 8.95087
97 Ar 6.5735 11.0591 0.0422392
98 Ar 6.63312 11.241 4.34654
99 Ar 6.8037 10.9838 8.69665
100 Ar 10.9218 2.39963 0.04831
101 Ar 11.294 2.20689 4.50016
102 Ar 11.2375 2.39462 8.79902
103 Ar 11.0928 6.29711 0.153889
104 Ar 11.1488 6.61593 4.34563
105 Ar 11.0933 6.64876 8.83957
106 Ar 11.0615 11.2581 0.174092
107 Ar 11.2862 11.0735 4.4395
108 Ar 11.0713 10.978 9.21199
ITEM: TIMESTEP
52080
ITEM: NUMBER OF ATOMS
108
ITEM: BOX BOUNDS pp pp pp
0.0000000000000000e+00 1.3349999400000000e+01
0.0000000000000000e+00 1.3349999400000000e+01
0.0000000000000000e+00 1.3349999400000000e+01
ITEM: ATOMS id element xu yu zu
1 Ar -0.0602274 0.248226 -0.0883224
2 Ar 0.184296 -0.095708 4.50033
3 Ar 0.00885173 0.0329021 8.90415
4 Ar 0.113056 4.3168 0.275666
5 Ar 0.115416 4.28617 4.37052
6 Ar -0.000171456 4.45098 8.89113
7 Ar 0.0323171 8.95866 -0.191866
8 Ar -0.0139928 8.93626 4.12294
9 Ar -0.0140736 8.87173 9.13171
10 Ar 4.61375 -0.076091 -0.0655193
11 Ar 4.33058 -0.054238 4.50488
12 Ar 4.47383 -0.258257 8.83974
13 Ar 4.37029 4.44943 -0.0821521
14 Ar 4.38891 4.4211 4.49446
15 Ar 4.40907 4.59969 9.156
16 Ar 4.53239 8.82453 0.0712853
17 Ar 4.37955 8.8574 4.48208
18 Ar 4.42759 8.9174 8.88085
19 Ar 8.83707 -0.0611654 -0.0154034
20 Ar 9.05315 0.155129 4.37178
21 Ar 9.16568 -0.0123204 8.89472
22 Ar 8.68771 4.47231 0.0366653
23 Ar 8.81899 4.49647 4.56878
24 Ar 8.79619 4.5489 8.7767
25 Ar 8.972 8.91276 0.113244
26 Ar 8.9141 8.94228 4.42087
27 Ar 8.97708 8.84145 8.92054
28 Ar 0.10926 2.02254 2.23002
29 Ar 0.120496 2.26589 6.69102
30 Ar -0.140955 2.40759 11.0943
31 Ar -0.120514 6.66458 1.95915
32 Ar 0.0519887 6.82201 6.63538
33 Ar -0.0115774 6.59489 10.9048
34 Ar 0.0923742 11.3522 2.06177
35 Ar 0.0594864 11.1427 6.85603
36 Ar -0.0766123 11.1358 11.197
37 Ar 4.16261 2.13969 2.1877
38 Ar 4.40153 2.04026 6.8468
39 Ar 4.49574 2.16436 11.1147
40 Ar 4.34928 6.72945 2.42016
41 Ar 4.32882 6.78516 6.60362