ITEM: TIMESTEP
26000
ITEM: NUMBER OF ATOMS
108
ITEM: BOX BOUNDS pp pp pp
0.0000000000000000e+00 1.3349999400000000e+01
0.0000000000000000e+00 1.3349999400000000e+01
0.0000000000000000e+00 1.3349999400000000e+01
ITEM: ATOMS id element xu yu zu
1 Ar -0.026209 -0.0594912 0.0702674
2 Ar 0.0798663 -0.00101005 4.24157
3 Ar -0.0105175 0.121868 8.89244
4 Ar -0.0876081 4.42229 -0.201665
5 Ar 0.019041 4.63262 4.43192
6 Ar 0.0448052 4.1995 9.13314
7 Ar 0.157102 9.01658 -0.166401
8 Ar 0.0416564 8.86861 4.45539
9 Ar 0.0493207 8.96677 8.85133
10 Ar 4.38925 -0.0923779 0.10221
11 Ar 4.29517 -0.158515 4.43902
12 Ar 4.58192 -0.241319 8.88041
13 Ar 4.23959 4.41197 0.156406
14 Ar 4.21071 4.50289 4.57195
15 Ar 4.48799 4.7039 8.9905
16 Ar 4.47898 8.81463 -0.0364855
17 Ar 4.37652 8.9816 4.43465
18 Ar 4.59555 8.73439 8.92048
19 Ar 8.84614 -0.00894043 0.0458757
20 Ar 8.78158 -0.0572662 4.56693
21 Ar 8.91307 0.150213 8.86599
22 Ar 8.80226 4.38021 0.214496
23 Ar 8.64074 4.40611 4.35748
24 Ar 8.84699 4.52445 8.62276
25 Ar 8.84563 8.88258 -0.157763
26 Ar 8.98821 9.01062 4.47951
27 Ar 8.997 8.82578 8.98427
28 Ar -0.0807804 2.36363 2.34882
29 Ar 0.151052 2.04279 6.55326
30 Ar 0.10363 2.08927 11.1926
31 Ar 0.00218074 6.58308 1.96258
32 Ar -0.0257336 6.50623 6.79101
33 Ar -0.114953 6.70177 10.9493
34 Ar -0.0153209 11.1207 2.08156
35 Ar -0.0561696 11.0641 6.86842
36 Ar 0.0712426 11.3156 11.0932
37 Ar 4.36607 2.20566 2.18285
38 Ar 4.44024 2.25791 6.64133
39 Ar 4.57488 2.36374 11.0481
40 Ar 4.40321 6.7607 2.1202
41 Ar 4.4778 6.71724 6.68236
42 Ar 4.59855 6.61891 11.1013
43 Ar 4.54809 11.0952 2.25786
44 Ar 4.53066 10.9367 6.70636
45 Ar 4.61782 11.185 11.1625
46 Ar 8.79524 2.1397 2.36973
47 Ar 8.86252 2.15934 6.57513
48 Ar 8.83455 2.2758 11.0394
49 Ar 9.03511 6.84729 2.41118
50 Ar 8.94494 6.63795 6.36197
51 Ar 8.92045 6.63995 11.2386
52 Ar 8.82856 11.1206 2.12593
53 Ar 9.22861 11.2209 6.7032
54 Ar 8.92368 11.3541 11.101
55 Ar 2.18423 -0.0897082 2.09808
56 Ar 2.21976 -0.0795712 6.70894
57 Ar 2.28827 0.186231 11.2593
58 Ar 2.17416 4.49639 2.08139
59 Ar 2.03687 4.34713 6.61976
60 Ar 2.21416 4.32647 11.1532
61 Ar 2.2904 8.93809 2.13053
62 Ar 2.3559 8.98612 6.81131
63 Ar 2.28147 9.06217 11.062
64 Ar 6.66664 0.0364541 2.46036
65 Ar 6.55453 -0.225766 6.42981
66 Ar 6.75846 0.0594362 11.0855
67 Ar 6.54328 4.42994 2.29182
68 Ar 6.52434 4.4993 6.59984
69 Ar 6.64584 4.47733 11.2894
70 Ar 6.71351 8.79993 2.116
71 Ar 6.74955 9.04171 6.69531
72 Ar 6.68139 8.81 11.1761
73 Ar 11.1744 0.0480477 2.32455
74 Ar 11.3149 -0.0075465 6.62762
75 Ar 11.1103 0.0726787 11.1799
76 Ar 11.0208 4.51618 2.25437
77 Ar 11.2554 4.21411 6.57014
78 Ar 11.0336 4.51436 11.3402
79 Ar 11.0635 8.9683 2.0707
80 Ar 11.0468 8.78294 6.8394
81 Ar 11.1276 8.96411 11.3429
82 Ar 2.01445 2.24977 0.216338
83 Ar 2.27676 2.28087 4.52041
84 Ar 2.36039 2.23173 8.80902
85 Ar 2.18295 6.74139 -0.313104
86 Ar 2.11195 6.7291 4.48159
87 Ar 2.16584 6.68604 8.86512
88 Ar 2.47425 11.0156 0.19101
89 Ar 2.12265 10.9361 4.56394
90 Ar 2.39443 11.2608 8.94741
91 Ar 6.5507 2.19825 -0.028643
92 Ar 6.53765 2.30763 4.50936
93 Ar 6.61464 2.12056 8.91224
94 Ar 6.63063 6.66606 0.0233181
95 Ar 6.65041 6.70467 4.36264
96 Ar 6.92571 6.71969 8.71991
97 Ar 6.56553 11.1634 -0.0143751
98 Ar 6.81001 10.9109 4.34145
99 Ar 6.72639 11.1552 8.75153
100 Ar 11.1485 2.17959 0.321597
101 Ar 10.9956 2.26472 4.40227
102 Ar 11.1429 2.34485 8.88272
103 Ar 11.1702 6.62149 0.052818
104 Ar 11.2877 6.78732 4.28051
105 Ar 10.985 6.57727 8.86819
106 Ar 10.9786 11.1743 0.183644
107 Ar 11.3198 11.0219 4.50462
108 Ar 11.0254 11.2633 8.95976
ITEM: TIMESTEP
26010
ITEM: NUMBER OF ATOMS
108
ITEM: BOX BOUNDS pp pp pp
0.0000000000000000e+00 1.3349999400000000e+01
0.0000000000000000e+00 1.3349999400000000e+01
0.0000000000000000e+00 1.3349999400000000e+01
ITEM: ATOMS id element xu yu zu
1 Ar -0.0319393 -0.0474114 0.0587335
2 Ar 0.0634567 0.0108412 4.24196
3 Ar -0.012456 0.126388 8.87929
4 Ar -0.083198 4.43917 -0.208367
5 Ar 0.0171504 4.6179 4.43407
6 Ar 0.0332781 4.18489 9.11412
7 Ar 0.161502 8.99597 -0.169161
8 Ar 0.0266907 8.85879 4.44967
9 Ar 0.0353827 8.96334 8.85959
10 Ar 4.39723 -0.0842896 0.12952
11 Ar 4.30658 -0.141148 4.44376
12 Ar 4.58749 -0.240254 8.87169
13 Ar 4.2482 4.41293 0.149612
14 Ar 4.2362 4.51041 4.57928
15 Ar 4.49208 4.71117 9.02104
16 Ar 4.4822 8.81269 -0.044715
17 Ar 4.36528 8.98651 4.44477
18 Ar 4.58835 8.73692 8.90161
19 Ar 8.8587 -0.013799 0.0376573
20 Ar 8.81146 -0.0716391 4.58272
21 Ar 8.91123 0.138156 8.84733
22 Ar 8.81426 4.39564 0.210746
23 Ar 8.6465 4.40822 4.34237
24 Ar 8.84765 4.52572 8.63043
25 Ar 8.84554 8.88641 -0.147283
26 Ar 8.9937 9.00225 4.4845
27 Ar 8.97944 8.82559 8.98734
28 Ar -0.0858967 2.36265 2.35398
29 Ar 0.144949 2.04367 6.5485
30 Ar 0.0896271 2.08615 11.2087
31 Ar -0.00994945 6.59032 1.94243
32 Ar -0.0130587 6.51292 6.78109
33 Ar -0.113661 6.67077 10.9398
34 Ar -0.00164765 11.1291 2.09586
35 Ar -0.0527917 11.081 6.87064
36 Ar 0.0709287 11.2946 11.1062
37 Ar 4.357 2.20378 2.15574
38 Ar 4.45296 2.23429 6.63719
39 Ar 4.59174 2.34901 11.0601
40 Ar 4.40011 6.7455 2.12612
41 Ar 4.47889 6.72995 6.69544
42 Ar 4.57173 6.61961 11.1195
43 Ar 4.53161 11.0914 2.26739
44 Ar 4.52312 10.9307 6.69392
45 Ar 4.61985 11.195 11.1666
46 Ar 8.78401 2.15516 2.35758
47 Ar 8.86955 2.16288 6.57539
48 Ar 8.83551 2.26093 11.0349
49 Ar 9.03569 6.85894 2.40904
50 Ar 8.95648 6.6416 6.35508
51 Ar 8.92487 6.63852 11.2241
52 Ar 8.83262 11.1215 2.11319
53 Ar 9.20324 11.2263 6.70305
54 Ar 8.9333 11.3575 11.0954
55 Ar 2.19002 -0.101714 2.08548
56 Ar 2.21878 -0.0859051 6.70748
57 Ar 2.30163 0.183185 11.2644
58 Ar 2.16353 4.49547 2.11329
59 Ar 2.02815 4.35887 6.62592
60 Ar 2.20319 4.33931 11.1356
61 Ar 2.29456 8.9328 2.13738
62 Ar 2.35505 8.97312 6.82308
63 Ar 2.28103 9.06482 11.0862
64 Ar 6.65564 0.0206547 2.46003
65 Ar 6.54402 -0.244354 6.43095
66 Ar 6.77846 0.0831239 11.0687
67 Ar 6.55521 4.439 2.29359
68 Ar 6.52185 4.48316 6.62798
69 Ar 6.61897 4.47322 11.2924
70 Ar 6.71168 8.80367 2.11863
71 Ar 6.75807 9.03998 6.70631
72 Ar 6.69185 8.83405 11.1792
73 Ar 11.1706 0.0540871 2.3181
74 Ar 11.3188 -0.0143871 6.60036
75 Ar 11.1092 0.0669442 11.1761
76 Ar 11.0347 4.52332 2.2555
77 Ar 11.2582 4.22603 6.56549
78 Ar 11.0403 4.50525 11.338
79 Ar 11.0717 8.95827 2.06962
80 Ar 11.0381 8.79635 6.84425
81 Ar 11.1066 8.93931 11.348
82 Ar 2.02527 2.24138 0.213799
83 Ar 2.28764 2.28459 4.51563
84 Ar 2.36461 2.22986 8.83259
85 Ar 2.18341 6.75595 -0.311577
86 Ar 2.09767 6.73325 4.48238
87 Ar 2.19693 6.69031 8.8619
88 Ar 2.47448 11.0157 0.19616
89 Ar 2.13573 10.932 4.55585
90 Ar 2.39806 11.276 8.94332
91 Ar 6.54563 2.18861 -0.0298958
92 Ar 6.54667 2.32941 4.51019
93 Ar 6.61911 2.11985 8.91287
94 Ar 6.61434 6.68099 0.0160161
95 Ar 6.65907 6.70781 4.35573
96 Ar 6.89767 6.73705 8.72392
97 Ar 6.56084 11.1639 -0.00384714
98 Ar 6.80532 10.9229 4.35065
99 Ar 6.71861 11.1445 8.73107
100 Ar 11.142 2.14824 0.310792
101 Ar 11.0022 2.28136 4.4078
102 Ar 11.1447 2.34648 8.87375
103 Ar 11.1477 6.6134 0.0657719
104 Ar 11.3014 6.7936 4.30287
105 Ar 10.9801 6.5641 8.86548
106 Ar 10.9958 11.1656 0.181888
107 Ar 11.3097 11.0401 4.49541
108 Ar 11.0226 11.2502 8.9482
ITEM: TIMESTEP
26020
ITEM: NUMBER OF ATOMS
108
ITEM: BOX BOUNDS pp pp pp
0.0000000000000000e+00 1.3349999400000000e+01
0.0000000000000000e+00 1.3349999400000000e+01
0.0000000000000000e+00 1.3349999400000000e+01
ITEM: ATOMS id element xu yu zu
1 Ar -0.0379017 -0.0351577 0.0465075
2 Ar 0.0480378 0.0218194 4.24508
3 Ar -0.0136851 0.129902 8.86741
4 Ar -0.0770943 4.45581 -0.212432
5 Ar 0.0146284 4.60044 4.43447
6 Ar 0.0211508 4.17322 9.09212
7 Ar 0.163558 8.97491 -0.170322
8 Ar 0.0113311 8.84913 4.4441
9 Ar 0.0202577 8.95901 8.87029
10 Ar 4.40746 -0.0732665 0.154868
11 Ar 4.3176 -0.122867 4.44821
12 Ar 4.59233 -0.233606 8.86265
13 Ar 4.25964 4.41467 0.139226
14 Ar 4.26368 4.51932 4.58368
15 Ar 4.49624 4.71458 9.04839
16 Ar 4.48551 8.81189 -0.0536251
17 Ar 4.35591 8.98818 4.45436
18 Ar 4.58042 8.74172 8.88457
19 Ar 8.8707 -0.0164411 0.0299849
20 Ar 8.84448 -0.0861311 4.59601
21 Ar 8.90973 0.125108 8.82712
22 Ar 8.82625 4.41145 0.205747
23 Ar 8.6564 4.4113 4.32885
24 Ar 8.84834 4.5242 8.64047
25 Ar 8.84513 8.89114 -0.134101
26 Ar 8.99997 8.99381 4.48934
27 Ar 8.9611 8.82788 8.99115
28 Ar -0.0893503 2.3617 2.35934
29 Ar 0.136441 2.04672 6.54422
30 Ar 0.072744 2.08382 11.2251
31 Ar -0.0200616 6.60014 1.92463
32 Ar -0.00168539 6.52242 6.77189
33 Ar -0.111695 6.64038 10.9311
34 Ar 0.0124574 11.1355 2.11211
35 Ar -0.0481285 11.0985 6.87069
36 Ar 0.0701431 11.2726 11.1192
37 Ar 4.34853 2.20136 2.1313
38 Ar 4.4657 2.20922 6.63505
39 Ar 4.60532 2.33192 11.0731
40 Ar 4.39595 6.72884 2.13445
41 Ar 4.47933 6.74269 6.70691
42 Ar 4.5428 6.62216 11.1389
43 Ar 4.51554 11.0871 2.27831
44 Ar 4.51385 10.9272 6.6804
45 Ar 4.62015 11.2039 11.1696
46 Ar 8.77264 2.1704 2.34367
47 Ar 8.87572 2.16723 6.57697
48 Ar 8.83825 2.24795 11.0322
49 Ar 9.03356 6.86806 2.40394
50 Ar 8.96831 6.64462 6.34983
51 Ar 8.92836 6.63586 11.2083
52 Ar 8.83658 11.1226 2.10277
53 Ar 9.1737 11.2302 6.70258
54 Ar 8.94154 11.3571 11.0901
55 Ar 2.19609 -0.112524 2.07676
56 Ar 2.21887 -0.0926573 6.70493
57 Ar 2.3168 0.177702 11.2685
58 Ar 2.15187 4.49597 2.14853
59 Ar 2.02204 4.37249 6.63526
60 Ar 2.1937 4.35305 11.118
61 Ar 2.29661 8.92475 2.14641
62 Ar 2.35117 8.9581 6.83443
63 Ar 2.28156 9.06685 11.1086
64 Ar 6.64373 0.00455315 2.45731
65 Ar 6.53451 -0.25996 6.43438
66 Ar 6.79645 0.105408 11.0533
67 Ar 6.56586 4.44863 2.2935
68 Ar 6.52063 4.46677 6.65724
69 Ar 6.59471 4.46937 11.2935
70 Ar 6.70957 8.80891 2.12226
71 Ar 6.7686 9.03496 6.71558
72 Ar 6.7027 8.85999 11.18
73 Ar 11.1642 0.0576757 2.31258
74 Ar 11.3209 -0.0193738 6.57263
75 Ar 11.1084 0.0623222 11.1726
76 Ar 11.0492 4.52958 2.25753
77 Ar 11.2597 4.24126 6.56162
78 Ar 11.0454 4.49288 11.3322
79 Ar 11.0825 8.94791 2.06994
80 Ar 11.032 8.81051 6.84699
81 Ar 11.0868 8.91517 11.3497
82 Ar 2.03784 2.23235 0.208637
83 Ar 2.29779 2.28608 4.5074
84 Ar 2.36944 2.22695 8.85729
85 Ar 2.18399 6.7692 -0.308086
86 Ar 2.08554 6.73809 4.48258
87 Ar 2.22813 6.6939 8.86012
88 Ar 2.47164 11.0174 0.195781
89 Ar 2.14841 10.9312 4.54629
90 Ar 2.39893 11.2891 8.9403
91 Ar 6.54217 2.17849 -0.029147
92 Ar 6.55467 2.34881 4.51036
93 Ar 6.62373 2.12178 8.9102
94 Ar 6.5998 6.694 0.00974517
95 Ar 6.66575 6.71227 4.34993
96 Ar 6.86793 6.75376 8.72975
97 Ar 6.55891 11.1641 0.00733474
98 Ar 6.79873 10.9363 4.36053
99 Ar 6.71388 11.1328 8.71424
100 Ar 11.1339 2.11833 0.29519
101 Ar 11.0102 2.29693 4.41341
102 Ar 11.1451 2.34615 8.86567
103 Ar 11.1232 6.60737 0.0775866
104 Ar 11.3142 6.79896 4.3278
105 Ar 10.9773 6.55023 8.86319
106 Ar 11.0154 11.1579 0.175776
107 Ar 11.2984 11.0593 4.48465
108 Ar 11.0225 11.2356 8.9384
ITEM: TIMESTEP
26030
ITEM: NUMBER OF ATOMS
108
ITEM: BOX BOUNDS pp pp pp
0.0000000000000000e+00 1.3349999400000000e+01
0.0000000000000000e+00 1.3349999400000000e+01
0.0000000000000000e+00 1.3349999400000000e+01
ITEM: ATOMS id element xu yu zu
1 Ar -0.0438459 -0.0231891 0.0339872
2 Ar 0.0340659 0.0318108 4.25075
3 Ar -0.0142828 0.132373 8.85718
4 Ar -0.0692979 4.47178 -0.213652
5 Ar 0.0115483 4.58061 4.43323
6 Ar 0.00873499 4.16452 9.06736
7 Ar 0.16293 8.95373 -0.169778
8 Ar -0.00406382 8.84041 4.43878
9 Ar 0.00420357 8.95382 8.8833
10 Ar 4.41991 -0.0598759 0.17768
11 Ar 4.328 -0.103819 4.45216
12 Ar 4.59647 -0.221563 8.85344
13 Ar 4.27317 4.41724 0.125715
14 Ar 4.29268 4.52951 4.58544
15 Ar 4.50047 4.71387 9.07212
16 Ar 4.4888 8.81246 -0.0627807
17 Ar 4.34874 8.98625 4.46326
18 Ar 4.57183 8.74907 8.87011
19 Ar 8.88187 -0.017014 0.0229552
20 Ar 8.87986 -0.100206 4.60627
21 Ar 8.90869 0.111249 8.80552
22 Ar 8.83794 4.42744 0.199415
23 Ar 8.67044 4.41553 4.31727
24 Ar 8.84878 4.52013 8.65285
25 Ar 8.84432 8.89661 -0.118395
26 Ar 9.00682 8.98573 4.49382
27 Ar 8.94236 8.83248 8.99554
28 Ar -0.0911087 2.36068 2.36437
29 Ar 0.125959 2.05198 6.54042
30 Ar 0.0533867 2.08243 11.2411
31 Ar -0.0279573 6.61239 1.9096
32 Ar 0.00823815 6.53483 6.76376
33 Ar -0.109047 6.61105 10.923
34 Ar 0.0267359 11.1397 2.12993
35 Ar -0.0421295 11.116 6.86852
36 Ar 0.0688249 11.25 11.1321
37 Ar 4.34094 2.19876 2.11017
38 Ar 4.47803 2.18309 6.63502
39 Ar 4.61515 2.31257 11.0869
40 Ar 4.39079 6.71105 2.14507
41 Ar 4.47934 6.7549 6.71632
42 Ar 4.51227 6.62691 11.1591
43 Ar 4.50006 11.0822 2.29057
44 Ar 4.50289 10.9261 6.66603
45 Ar 4.61885 11.2118 11.1715
46 Ar 8.7613 2.18497 2.3282
47 Ar 8.88096 2.17238 6.57974
48 Ar 8.84293 2.23727 11.0314
49 Ar 9.02891 6.87448 2.39613
50 Ar 8.98009 6.64674 6.34653
51 Ar 8.93056 6.63192 11.1917
52 Ar 8.84048 11.1238 2.09492
53 Ar 9.14054 11.2323 6.70189
54 Ar 8.94819 11.353 11.0853
55 Ar 2.20207 -0.121839 2.07232
56 Ar 2.22 -0.099468 6.70115
57 Ar 2.33338 0.169833 11.2714
58 Ar 2.13968 4.49774 2.18617
59 Ar 2.01899 4.38745 6.64753
60 Ar 2.18574 4.36739 11.1007
61 Ar 2.29655 8.91402 2.1573
62 Ar 2.34394 8.94156 6.84507
63 Ar 2.28313 9.06839 11.1285
64 Ar 6.63151 -0.0114334 2.45252
65 Ar 6.52646 -0.272101 6.43987
66 Ar 6.81215 0.125431 11.0395
67 Ar 6.57504 4.45875 2.29125
68 Ar 6.52073 4.45054 6.68736
69 Ar 6.57364 4.46598 11.2929
70 Ar 6.70701 8.81568 2.12699
71 Ar 6.78093 9.02665 6.7226
72 Ar 6.71364 8.88748 11.1784
73 Ar 11.1555 0.0587531 2.30814
74 Ar 11.3211 -0.0224919 6.54501
75 Ar 11.1081 0.058656 11.169
76 Ar 11.0642 4.53476 2.26036
77 Ar 11.2598 4.25975 6.55868
78 Ar 11.0487 4.47733 11.323
79 Ar 11.0958 8.93752 2.07173
80 Ar 11.0284 8.82538 6.84776
81 Ar 11.0685 8.89179 11.348
82 Ar 2.0518 2.22326 0.200932
83 Ar 2.30719 2.28551 4.49607
84 Ar 2.37491 2.22302 8.88261
85 Ar 2.18465 6.78063 -0.302395
86 Ar 2.07576 6.74337 4.48216
87 Ar 2.25868 6.69682 8.85994
88 Ar 2.46581 11.0207 0.189881
89 Ar 2.16021 10.9339 4.53553
90 Ar 2.39696 11.2998 8.9386
91 Ar 6.54077 2.16813 -0.0262675
92 Ar 6.56168 2.36538 4.50973
93 Ar 6.62851 2.12648 8.90414
94 Ar 6.5874 6.70492 0.00444654
95 Ar 6.67039 6.718 4.34557
96 Ar 6.83709 6.76932 8.73745
97 Ar 6.55966 11.1644 0.0189853
98 Ar 6.79055 10.9506 4.37082
99 Ar 6.71204 11.1203 8.70156
100 Ar 11.1244 2.09075 0.27504
101 Ar 11.0192 2.31121 4.4188
102 Ar 11.1437 2.34361 8.85843
103 Ar 11.0968 6.60332 0.0877779
104 Ar 11.3257 6.80303 4.35476
105 Ar 10.9765 6.53606 8.86114
106 Ar 11.0371 11.1513 0.165472
107 Ar 11.2861 11.0789 4.47245
108 Ar 11.0253 11.2197 8.93033
ITEM: TIMESTEP
26040
ITEM: NUMBER OF ATOMS
108
ITEM: BOX BOUNDS pp pp pp
0.0000000000000000e+00 1.3349999400000000e+01
0.0000000000000000e+00 1.3349999400000000e+01
0.0000000000000000e+00 1.3349999400000000e+01
ITEM: ATOMS id element xu yu zu
1 Ar -0.0494849 -0.0119667 0.0216177
2 Ar 0.0219291 0.0407226 4.25869
3 Ar -0.0143275 0.133802 8.84894
4 Ar -0.0599018 4.48673 -0.211895
5 Ar 0.00801974 4.55884 4.43062
6 Ar -0.00365559 4.15874 9.04014
7 Ar 0.15934 8.93274 -0.167504
8 Ar -0.0191141 8.83337 4.43383
9 Ar -0.0125195 8.94782 8.89843
10 Ar 4.43441 -0.0448064 0.19743
11 Ar 4.33761 -0.0841748 4.45537
12 Ar 4.59997 -0.204506 8.84424
13 Ar 4.28808 4.42061 0.109608
14 Ar 4.32268 4.54078 4.58488
15 Ar 4.50474 4.7089 9.09191
16 Ar 4.49199 8.81459 -0.0717116
17 Ar 4.34399 8.98045 4.47135
18 Ar 4.56268 8.75928 8.85884
19 Ar 8.89194 -0.0157573 0.0166295
20 Ar 8.91668 -0.11333 4.61309
21 Ar 8.90819 0.0967706 8.78279
22 Ar 8.84905 4.44339 0.191705
23 Ar 8.68847 4.42103 4.30792
24 Ar 8.84876 4.51376 8.66751
25 Ar 8.84307 8.90267 -0.100427
26 Ar 9.01405 8.97841 4.49773
27 Ar 8.92369 8.83914 9.00031
28 Ar -0.0912009 2.35943 2.3685
29 Ar 0.113976 2.05947 6.53715
30 Ar 0.0320382 2.08214 11.2565
31 Ar -0.0335418 6.62687 1.89771
32 Ar 0.0166254 6.55012 6.75697
33 Ar -0.105726 6.58321 10.9156
34 Ar 0.0409265 11.1419 2.14894
35 Ar -0.0348013 11.1329 6.86408
36 Ar 0.0669208 11.2271 11.1445
37 Ar 4.33449 2.1964 2.09294
38 Ar 4.48955 2.15633 6.6371
39 Ar 4.62095 2.29109 11.1013
40 Ar 4.38472 6.69249 2.15775
41 Ar 4.4791 6.76606 6.72326
42 Ar 4.48069 6.63404 11.1798
43 Ar 4.48529 11.0768 2.30398
44 Ar 4.49034 10.9274 6.6511
45 Ar 4.61614 11.219 11.1723
46 Ar 8.75019 2.19847 2.31142
47 Ar 8.88525 2.17831 6.5835
48 Ar 8.8496 2.22917 11.0324
49 Ar 9.02198 6.87812 2.38591
50 Ar 8.99146 6.64771 6.3455
51 Ar 8.93116 6.6267 11.1745
52 Ar 8.84444 11.1251 2.08981
53 Ar 9.10441 11.2322 6.70111
54 Ar 8.95315 11.3452 11.0809
55 Ar 2.20763 -0.129399 2.07239
56 Ar 2.22208 -0.105958 6.69605
57 Ar 2.35096 0.159656 11.2733
58 Ar 2.12749 4.50058 2.22522
59 Ar 2.01936 4.40321 6.66236
60 Ar 2.17925 4.38204 11.0841
61 Ar 2.29441 8.90082 2.16968
62 Ar 2.33311 8.92407 6.85467
63 Ar 2.28577 9.06955 11.1453
64 Ar 6.61954 -0.026917 2.44599
65 Ar 6.5203 -0.280368 6.44716
66 Ar 6.82539 0.142431 11.0274
67 Ar 6.58263 4.46928 2.28666
68 Ar 6.52216 4.43486 6.71801
69 Ar 6.55625 4.46322 11.2907
70 Ar 6.70383 8.82395 2.13289
71 Ar 6.79476 9.01514 6.7269
72 Ar 6.7244 8.91612 11.1746
73 Ar 11.1444 0.0573615 2.30482
74 Ar 11.3194 -0.0237786 6.51815
75 Ar 11.1081 0.0557282 11.165
76 Ar 11.0795 4.53871 2.26384
77 Ar 11.2584 4.28141 6.55683
78 Ar 11.0504 4.45877 11.3105
79 Ar 11.1114 8.92742 2.075
80 Ar 11.0274 8.8409 6.84673
81 Ar 11.0521 8.86925 11.3427
82 Ar 2.06678 2.21462 0.190794
83 Ar 2.31584 2.28311 4.48214
84 Ar 2.38094 2.21813 8.90806
85 Ar 2.18537 6.78978 -0.294273
86 Ar 2.06845 6.74886 4.48116
87 Ar 2.28788 6.69908 8.86154
88 Ar 2.45713 11.0253 0.178677
89 Ar 2.17073 10.9398 4.52388
90 Ar 2.3922 11.3077 8.93836
91 Ar 6.5418 2.1578 -0.0212064
92 Ar 6.56777 2.37877 4.50819
93 Ar 6.63344 2.13394 8.89479
94 Ar 6.57742 6.71366 4.83335e-05
95 Ar 6.67303 6.72488 4.34295
96 Ar 6.80574 6.78324 8.7471
97 Ar 6.56296 11.1648 0.0308993
98 Ar 6.78108 10.9652 4.38127
99 Ar 6.71272 11.1073 8.69345
100 Ar 11.1136 2.06628 0.250726
101 Ar 11.029 2.32404 4.42372
102 Ar 11.1404 2.33869 8.85197
103 Ar 11.0689 6.60112 0.0959043
104 Ar 11.3355 6.8054 4.38315
105 Ar 10.9779 6.52199 8.85916
106 Ar 11.061 11.1455 0.151251
107 Ar 11.2728 11.0985 4.45893
108 Ar 11.0308 11.2028 8.92392
ITEM: TIMESTEP
26050
ITEM: NUMBER OF ATOMS
108
ITEM: BOX BOUNDS pp pp pp
0.0000000000000000e+00 1.3349999400000000e+01
0.0000000000000000e+00 1.3349999400000000e+01
0.0000000000000000e+00 1.3349999400000000e+01
ITEM: ATOMS id element xu yu zu
1 Ar -0.054511 -0.00192858 0.00986737
2 Ar 0.0119441 0.0484835 4.26859
3 Ar -0.0138916 0.134225 8.84291
4 Ar -0.0490876 4.50036 -0.207106
5 Ar 0.00417747 4.53563 4.42705
6 Ar -0.0157247 4.15576 9.01082
7 Ar 0.152608 8.91224 -0.163572
8 Ar -0.0334394 8.82866 4.42933
9 Ar -0.0296478 8.94109 8.91546
10 Ar 4.45073 -0.0288351 0.213661
11 Ar 4.34633 -0.064132 4.45765
12 Ar 4.60281 -0.182995 8.83528
13 Ar 4.30369 4.42474 0.0914592
14 Ar 4.35318 4.55288 4.58236
15 Ar 4.509 4.69965 9.10757
16 Ar 4.49502 8.8185 -0.0799333
17 Ar 4.34179 8.97064 4.47858
18 Ar 4.55307 8.77264 8.8512
19 Ar 8.90069 -0.0129967 0.0110351
20 Ar 8.95397 -0.124994 4.61613
21 Ar 8.90829 0.0818794 8.75927
22 Ar 8.85934 4.45903 0.18261
23 Ar 8.71022 4.42786 4.30096
24 Ar 8.8481 4.50539 8.68437
25 Ar 8.8414 8.90918 -0.0805409
26 Ar 9.02145 8.97215 4.50084
27 Ar 8.90556 8.84756 9.00524
28 Ar -0.0897059 2.35772 2.37116
29 Ar 0.100985 2.06916 6.53443
30 Ar 0.00924093 2.08318 11.2707
31 Ar -0.0368309 6.64333 1.88929
32 Ar 0.0234569 6.5682 6.75177
33 Ar -0.101769 6.55723 10.9087
34 Ar 0.0547712 11.142 2.16874
35 Ar -0.0262127 11.1487 6.85739
36 Ar 0.0643888 11.2043 11.1563
37 Ar 4.32939 2.19478 2.08009
38 Ar 4.4999 2.12947 6.64119
39 Ar 4.62262 2.2677 11.116
40 Ar 4.37784 6.67349 2.17218
41 Ar 4.47881 6.77572 6.72741
42 Ar 4.44867 6.64355 11.2002
43 Ar 4.47128 11.0708 2.31826
44 Ar 4.47638 10.9309 6.63593
45 Ar 4.61225 11.2255 11.172
46 Ar 8.73953 2.21061 2.29357
47 Ar 8.88858 2.18498 6.58803
48 Ar 8.85825 2.22386 11.0351
49 Ar 9.01296 6.87898 2.37364
50 Ar 9.00205 6.64737 6.34703
51 Ar 8.92991 6.62026 11.1568
52 Ar 8.84862 11.1264 2.0875
53 Ar 9.06607 11.2297 6.70036
54 Ar 8.95635 11.3339 11.0771
55 Ar 2.21251 -0.134998 2.077
56 Ar 2.22501 -0.111747 6.6896
57 Ar 2.36902 0.147269 11.2742
58 Ar 2.1158 4.50429 2.26467
59 Ar 2.02345 4.41925 6.67928
60 Ar 2.17415 4.39669 11.0682
61 Ar 2.29029 8.88549 2.18306
62 Ar 2.31852 8.90621 6.86294
63 Ar 2.28943 9.07037 11.1585
64 Ar 6.60836 -0.0415501 2.43804
65 Ar 6.51641 -0.284458 6.45604
66 Ar 6.83605 0.155787 11.0173
67 Ar 6.58864 4.4801 2.27966
68 Ar 6.52488 4.42008 6.74879
69 Ar 6.54292 4.4612 11.2872
70 Ar 6.69987 8.83364 2.14
71 Ar 6.80972 9.00059 6.72814
72 Ar 6.73473 8.94554 11.1686
73 Ar 11.1312 0.0536573 2.30258
74 Ar 11.3157 -0.0233176 6.49279
75 Ar 11.1086 0.0532649 11.1602
76 Ar 11.0949 4.54135 2.2678
77 Ar 11.2555 4.30603 6.55617
78 Ar 11.0504 4.43747 11.2953
79 Ar 11.1291 8.9179 2.07975
80 Ar 11.0289 8.85699 6.84409
81 Ar 11.0377 8.84765 11.3342
82 Ar 2.08242 2.20689 0.178349
83 Ar 2.32376 2.27913 4.4662
84 Ar 2.38742 2.21233 8.9332
85 Ar 2.18607 6.79629 -0.283503
86 Ar 2.06365 6.75429 4.47965
87 Ar 2.31509 6.70069 8.86504
88 Ar 2.44581 11.0311 0.162588
89 Ar 2.17967 10.9488 4.51163
90 Ar 2.38478 11.3129 8.93967
91 Ar 6.54561 2.14779 -0.0140048
92 Ar 6.57306 2.38878 4.50567
93 Ar 6.63857 2.14407 8.88244
94 Ar 6.57011 6.72022 -0.00352929
95 Ar 6.67378 6.73277 4.34229
96 Ar 6.77444 6.79513 8.7588
97 Ar 6.56857 11.1654 0.042853
98 Ar 6.77063 10.9796 4.39165
99 Ar 6.71545 11.0943 8.69016
100 Ar 11.1017 2.0456 0.222767
101 Ar 11.039 2.33525 4.42797
102 Ar 11.135 2.33125 8.84618
103 Ar 11.0398 6.60062 0.101593
104 Ar 11.3432 6.80572 4.41237
105 Ar 10.9815 6.50845 8.8571
106 Ar 11.0868 11.1405 0.133489
107 Ar 11.2587 11.1174 4.44427
108 Ar 11.0387 11.1852 8.91907
ITEM: TIMESTEP
26060
ITEM: NUMBER OF ATOMS
108
ITEM: BOX BOUNDS pp pp pp
0.0000000000000000e+00 1.3349999400000000e+01
0.0000000000000000e+00 1.3349999400000000e+01
0.0000000000000000e+00 1.3349999400000000e+01
ITEM: ATOMS id element xu yu zu
1 Ar -0.0586157 0.00653884 -0.000798772
2 Ar 0.00435188 0.0550447 4.28011
3 Ar -0.0130365 0.133701 8.83924
4 Ar -0.0371117 4.51243 -0.199305
5 Ar 0.000166708 4.51157 4.42305
6 Ar -0.0272119 4.15543 8.9798
7 Ar 0.142666 8.89254 -0.158154
8 Ar -0.0466829 8.82684 4.42541
9 Ar -0.0469133 8.9337 8.93416
10 Ar 4.46849 -0.0127807 0.226008
11 Ar 4.35414 -0.0439191 4.45882
12 Ar 4.60497 -0.157741 8.82678
13 Ar 4.31942 4.42948 0.0718272
14 Ar 4.3837 4.56549 4.57829
15 Ar 4.51317 4.68621 9.11907
16 Ar 4.49785 8.82436 -0.0869695
17 Ar 4.34215 8.95686 4.4849
18 Ar 4.54308 8.78935 8.84741
19 Ar 8.90788 -0.00913159 0.00616681
20 Ar 8.9907 -0.134726 4.61515
21 Ar 8.90902 0.066788 8.73537
22 Ar 8.86855 4.47407 0.172157
23 Ar 8.73529 4.43599 4.29645
24 Ar 8.84672 4.49533 8.70335
25 Ar 8.83939 8.916 -0.0591555
26 Ar 9.02887 8.96717 4.50292
27 Ar 8.88847 8.85736 9.01005
28 Ar -0.0867406 2.35528 2.37177
29 Ar 0.0874737 2.08101 6.53233
30 Ar -0.0144206 2.08578 11.2832
31 Ar -0.037949 6.66138 1.88457
32 Ar 0.02878 6.58886 6.74832
33 Ar -0.0972418 6.53344 10.9025
34 Ar 0.0680218 11.1402 2.18891
35 Ar -0.0164953 11.1631 6.84848
36 Ar 0.0612033 11.1819 11.1673
37 Ar 4.3258 2.19441 2.07199
38 Ar 4.50872 2.1031 6.64713
39 Ar 4.62027 2.24273 11.1308
40 Ar 4.37029 6.65441 2.18801
41 Ar 4.47862 6.78353 6.72862
42 Ar 4.41689 6.65525 11.2199
43 Ar 4.45802 11.0644 2.333
44 Ar 4.46123 10.9365 6.6209
45 Ar 4.60741 11.2316 11.1706
46 Ar 8.72952 2.22119 2.27494
47 Ar 8.89099 2.19234 6.59301
48 Ar 8.86873 2.2214 11.0394
49 Ar 9.00209 6.87714 2.35974
50 Ar 9.01154 6.64564 6.35138
51 Ar 8.9266 6.61267 11.1391
52 Ar 8.85321 11.1278 2.08801
53 Ar 9.02635 11.2247 6.69968
54 Ar 8.95783 11.3195 11.0739
55 Ar 2.21655 -0.138485 2.086
56 Ar 2.22867 -0.116476 6.68184
57 Ar 2.38705 0.132789 11.2742
58 Ar 2.10509 4.5087 2.30357
59 Ar 2.03141 4.43511 6.6978
60 Ar 2.17029 4.41101 11.0535
61 Ar 2.28436 8.86845 2.19697
62 Ar 2.30019 8.88854 6.86959
63 Ar 2.29396 9.07083 11.1679
64 Ar 6.59846 -0.055035 2.429
65 Ar 6.51508 -0.284184 6.46627
66 Ar 6.84412 0.165059 11.0089
67 Ar 6.59315 4.49112 2.27029
68 Ar 6.52881 4.40656 6.7792
69 Ar 6.5339 4.45993 11.2824
70 Ar 6.695 8.84461 2.14833
71 Ar 6.82534 8.98322 6.7261
72 Ar 6.74442 8.97529 11.1609
73 Ar 11.1163 0.0479109 2.30125
74 Ar 11.31 -0.021234 6.4697
75 Ar 11.1095 0.0509447 11.1543
76 Ar 11.1102 4.54269 2.27201
77 Ar 11.2509 4.33328 6.55675
78 Ar 11.0491 4.41382 11.2777
79 Ar 11.1487 8.90923 2.08594
80 Ar 11.0326 8.87358 6.84
81 Ar 11.0256 8.82706 11.3224
82 Ar 2.09841 2.20045 0.163746
83 Ar 2.33095 2.27385 4.44887
84 Ar 2.39414 2.2057 8.95761
85 Ar 2.18667 6.79988 -0.269904
86 Ar 2.0613 6.7594 4.47778
87 Ar 2.33976 6.70164 8.87054
88 Ar 2.43208 11.0379 0.142211
89 Ar 2.18682 10.9606 4.49908
90 Ar 2.37493 11.3152 8.94253
91 Ar 6.55241 2.13842 -0.0048045
92 Ar 6.57771 2.39533 4.50215
93 Ar 6.64394 2.15663 8.86757
94 Ar 6.56559 6.72468 -0.00637167
95 Ar 6.67286 6.74151 4.34372
96 Ar 6.74368 6.80467 8.77263
97 Ar 6.57623 11.1664 0.0546079
98 Ar 6.75948 10.9937 4.40178
99 Ar 6.71964 11.0815 8.69175
100 Ar 11.0889 2.02927 0.19181
101 Ar 11.0491 2.34474 4.4314
102 Ar 11.1276 2.32123 8.84094
103 Ar 11.0101 6.60165 0.10456
104 Ar 11.3485 6.80368 4.44178
105 Ar 10.9871 6.49581 8.85486
106 Ar 11.114 11.1362 0.112639
107 Ar 11.2441 11.1351 4.42864
108 Ar 11.0489 11.1672 8.91561
ITEM: TIMESTEP
26070
ITEM: NUMBER OF ATOMS
108
ITEM: BOX BOUNDS pp pp pp
0.0000000000000000e+00 1.3349999400000000e+01
0.0000000000000000e+00 1.3349999400000000e+01
0.0000000000000000e+00 1.3349999400000000e+01
ITEM: ATOMS id element xu yu zu
1 Ar -0.0615118 0.0131293 -0.00994874
2 Ar -0.000688445 0.0603808 4.29286
3 Ar -0.011809 0.132309 8.83798
4 Ar -0.0242851 4.52278 -0.188578
5 Ar -0.00386949 4.48727 4.41922
6 Ar -0.037907 4.15752 8.94756
7 Ar 0.129575 8.8739 -0.151522
8 Ar -0.0585361 8.82831 4.42217
9 Ar -0.064042 8.92574 8.95425
10 Ar 4.48724 0.00255185 0.234216
11 Ar 4.36109 -0.0237932 4.45873
12 Ar 4.60638 -0.129579 8.81899
13 Ar 4.33477 4.43468 0.0512523
14 Ar 4.41378 4.57824 4.57306
15 Ar 4.51713 4.6688 9.12647
16 Ar 4.50046 8.8323 -0.092374
17 Ar 4.34497 8.93928 4.49033
18 Ar 4.53278 8.8095 8.84748
19 Ar 8.91335 -0.0046169 0.00199061
20 Ar 9.02576 -0.142113 4.61004
21 Ar 8.91038 0.0517087 8.71159
22 Ar 8.87649 4.4882 0.160406
23 Ar 8.76313 4.44532 4.29434
24 Ar 8.84461 4.48388 8.72431
25 Ar 8.83715 8.92302 -0.0367451
26 Ar 9.03616 8.96356 4.50373
27 Ar 8.8729 8.86812 9.01446
28 Ar -0.082447 2.35179 2.36981
29 Ar 0.0739031 2.09487 6.53091
30 Ar -0.0383367 2.09016 11.2936
31 Ar -0.0371183 6.68059 1.88374
32 Ar 0.0327024 6.61182 6.74672
33 Ar -0.0922386 6.51211 10.8968
34 Ar 0.0804457 11.1365 2.20903
35 Ar -0.00583819 11.1756 6.83742
36 Ar 0.0573611 11.1603 11.1774
37 Ar 4.32386 2.19576 2.06889
38 Ar 4.51572 2.07788 6.65465
39 Ar 4.61417 2.21656 11.1457
40 Ar 4.36223 6.63561 2.2048
41 Ar 4.47864 6.78924 6.72687
42 Ar 4.38606 6.66885 11.2381
43 Ar 4.44548 11.0574 2.34777
44 Ar 4.44517 10.9439 6.60636
45 Ar 4.60191 11.2374 11.1683
46 Ar 8.72042 2.23008 2.25586
47 Ar 8.89253 2.20032 6.59814
48 Ar 8.88074 2.22168 11.0449
49 Ar 8.98957 6.87275 2.34462
50 Ar 9.0196 6.6425 6.3588
51 Ar 8.92109 6.60408 11.1214
52 Ar 8.85843 11.1291 2.09129
53 Ar 8.98611 11.217 6.69903
54 Ar 8.95769 11.3023 11.0713
55 Ar 2.21966 -0.13977 2.09907
56 Ar 2.23291 -0.119817 6.67288
57 Ar 2.40449 0.116348 11.2734
58 Ar 2.09576 4.51363 2.341
59 Ar 2.04333 4.4504 6.71737
60 Ar 2.16752 4.42468 11.04
61 Ar 2.27679 8.8502 2.2109
62 Ar 2.27822 8.87162 6.87442
63 Ar 2.29917 9.07085 11.1732
64 Ar 6.59025 -0.067129 2.41919
65 Ar 6.51653 -0.279487 6.47765
66 Ar 6.84967 0.170003 11.0023
67 Ar 6.59633 4.50222 2.25871
68 Ar 6.53384 4.39463 6.80868
69 Ar 6.52928 4.45937 11.2766
70 Ar 6.6891 8.8567 2.15789
71 Ar 6.84115 8.96334 6.72073
72 Ar 6.75325 9.00496 11.1517
73 Ar 11.1 0.0404938 2.30056
74 Ar 11.3025 -0.0176907 6.44966
75 Ar 11.1105 0.0484151 11.147
76 Ar 11.1254 4.54278 2.27619
77 Ar 11.2446 4.36275 6.55856
78 Ar 11.0467 4.38828 11.2581
79 Ar 11.1696 8.90162 2.09349
80 Ar 11.0385 8.89057 6.83463
81 Ar 11.0157 8.80756 11.3077
82 Ar 2.11444 2.19556 0.147153
83 Ar 2.3374 2.26755 4.43081
84 Ar 2.40084 2.19836 8.98092
85 Ar 2.18706 6.80042 -0.25334
86 Ar 2.06126 6.76395 4.47574
87 Ar 2.36146 6.70199 8.87808
88 Ar 2.41622 11.0457 0.118287
89 Ar 2.19209 10.9749 4.48652
90 Ar 2.36291 11.3149 8.94686
91 Ar 6.56233 2.13003 0.00614982
92 Ar 6.58193 2.39848 4.49763
93 Ar 6.64963 2.17124 8.85085
94 Ar 6.56391 6.72722 -0.00856934
95 Ar 6.67055 6.75088 4.34733
96 Ar 6.71388 6.81166 8.78867
97 Ar 6.58565 11.1679 0.0659176
98 Ar 6.74789 11.0069 4.41152
99 Ar 6.72463 11.0694 8.69813
100 Ar 11.0756 2.01767 0.158607
101 Ar 11.0589 2.3524 4.43394
102 Ar 11.1184 2.30867 8.8361
103 Ar 10.9805 6.60403 0.104613
104 Ar 11.3511 6.79906 4.47076
105 Ar 10.9946 6.48444 8.85238
106 Ar 11.1423 11.1323 0.0892201
107 Ar 11.2292 11.151 4.41228
108 Ar 11.0611 11.1492 8.91341
ITEM: TIMESTEP
26080
ITEM: NUMBER OF ATOMS
108
ITEM: BOX BOUNDS pp pp pp
0.0000000000000000e+00 1.3349999400000000e+01
0.0000000000000000e+00 1.3349999400000000e+01
0.0000000000000000e+00 1.3349999400000000e+01
ITEM: ATOMS id element xu yu zu
1 Ar -0.0629547 0.0176427 -0.0172126
2 Ar -0.00310721 0.0644903 4.30649
3 Ar -0.0102382 0.130135 8.83912
4 Ar -0.0109512 4.53126 -0.175072
5 Ar -0.00779915 4.46331 4.4162
6 Ar -0.0476565 4.1618 8.91458
7 Ar 0.113521 8.85656 -0.144037
8 Ar -0.0687584 8.8333 4.41974
9 Ar -0.0807526 8.91728 8.97544
10 Ar 4.50645 0.0164304 0.23816
11 Ar 4.36732 -0.00403655 4.45727
12 Ar 4.60699 -0.0994284 8.8122
13 Ar 4.34933 4.44015 0.0302383
14 Ar 4.44302 4.59073 4.56709
15 Ar 4.52071 4.6477 9.12994
16 Ar 4.50286 8.84242 -0.0957527
17 Ar 4.35008 8.91827 4.49491
18 Ar 4.52225 8.83306 8.85125
19 Ar 8.91696 6.0304e-05 -0.00155295
20 Ar 9.05804 -0.14681 4.60086
21 Ar 8.91234 0.0368429 8.6884
22 Ar 8.88298 4.50108 0.147444
23 Ar 8.79313 4.45569 4.29449
24 Ar 8.84183 4.4714 8.7471
25 Ar 8.83482 8.93015 -0.0138178
26 Ar 9.04321 8.96134 4.50308
27 Ar 8.85931 8.87938 9.01814
28 Ar -0.0769827 2.34696 2.36484
29 Ar 0.0606944 2.11057 6.53026
30 Ar -0.0618891 2.09648 11.3015
31 Ar -0.0346398 6.70041 1.88696
32 Ar 0.0353764 6.63667 6.74704
33 Ar -0.0868806 6.49341 10.8919
34 Ar 0.0918313 11.1312 2.22867
35 Ar 0.00552122 11.1859 6.82433
36 Ar 0.0528871 11.1398 11.1864
37 Ar 4.32363 2.19925 2.07082
38 Ar 4.52065 2.05452 6.66342