ITEM: TIMESTEP
76000
ITEM: NUMBER OF ATOMS
108
ITEM: BOX BOUNDS pp pp pp
0.0000000000000000e+00 1.3349999400000000e+01
0.0000000000000000e+00 1.3349999400000000e+01
0.0000000000000000e+00 1.3349999400000000e+01
ITEM: ATOMS id element xu yu zu
1 Ar 0.0125022 0.065661 -0.0395275
2 Ar 0.00391085 -0.10654 4.32794
3 Ar -0.248295 -0.257623 9.00888
4 Ar -0.106068 4.36064 -0.0669768
5 Ar -0.0721849 4.55579 4.37242
6 Ar 0.115322 4.41039 9.06547
7 Ar -0.0469704 8.97897 0.0288609
8 Ar -0.0945583 8.75928 4.34099
9 Ar -0.0623346 9.01898 8.92181
10 Ar 4.51965 -0.0606004 0.0143525
11 Ar 4.512 0.10022 4.46137
12 Ar 4.30006 -0.00376888 9.0993
13 Ar 4.53503 4.32271 0.180566
14 Ar 4.52383 4.47936 4.44972
15 Ar 4.27346 4.4989 8.8867
16 Ar 4.54916 8.80874 -0.00727975
17 Ar 4.60099 8.90107 4.63658
18 Ar 4.32997 9.01178 8.60374
19 Ar 8.95112 0.275569 0.121739
20 Ar 8.91166 0.0453272 4.47874
21 Ar 8.84613 0.00205873 9.06586
22 Ar 8.88249 4.35467 0.0168508
23 Ar 9.03563 4.47557 4.45618
24 Ar 8.8077 4.4642 9.0177
25 Ar 8.85894 8.80967 0.12789
26 Ar 8.8892 9.04432 4.19748
27 Ar 8.73487 8.60484 8.98147
28 Ar 0.241987 2.0311 2.212
29 Ar 0.198357 2.13183 6.7131
30 Ar -0.0170716 2.28441 11.2146
31 Ar -0.0598057 6.6819 2.00097
32 Ar -0.075272 6.66457 6.71065
33 Ar 0.0450923 6.90951 10.9884
34 Ar 0.00149505 11.0289 2.16325
35 Ar -0.148113 11.1102 6.52567
36 Ar 0.0661201 11.1759 11.2562
37 Ar 4.40141 2.26491 2.25981
38 Ar 4.36417 2.2702 6.68018
39 Ar 4.21322 2.23996 11.0665
40 Ar 4.64948 6.65255 2.28973
41 Ar 4.39804 6.80535 6.60798
42 Ar 4.81551 6.63857 11.2222
43 Ar 4.58498 11.1829 2.33037
44 Ar 4.53516 11.3662 6.65329
45 Ar 4.30249 11.1368 10.9314
46 Ar 8.98653 2.45822 2.24516
47 Ar 9.01243 1.91613 6.70149
48 Ar 8.85228 2.1707 10.9986
49 Ar 8.78788 6.77368 2.26587
50 Ar 8.94356 6.60414 6.54736
51 Ar 8.83206 6.6582 11.0899
52 Ar 9.03663 11.1928 2.10742
53 Ar 8.88909 11.0429 6.73865
54 Ar 8.8208 11.0521 11.1594
55 Ar 2.28261 -0.16961 2.13838
56 Ar 2.23596 -0.106453 6.75009
57 Ar 2.26837 -0.073468 11.2102
58 Ar 2.01726 4.61114 2.21266
59 Ar 2.38111 4.64299 6.57336
60 Ar 2.33123 4.64734 11.3589
61 Ar 2.33906 9.02433 2.35493
62 Ar 2.13446 8.7991 6.69464
63 Ar 2.31084 9.05097 11.0629
64 Ar 6.63073 0.163766 2.31939
65 Ar 6.69331 0.0460675 6.73648
66 Ar 6.59486 0.0631657 11.1864
67 Ar 6.77676 4.4804 2.27238
68 Ar 6.74211 4.43589 6.7133
69 Ar 6.67411 4.31921 10.9695
70 Ar 6.66843 8.82702 2.29171
71 Ar 6.83583 8.8242 6.56748
72 Ar 6.67256 9.10734 11.0141
73 Ar 11.1914 0.177283 2.15135
74 Ar 10.9591 -0.190709 6.74833
75 Ar 11.0752 0.00846171 11.2085
76 Ar 11.2291 4.39001 2.07483
77 Ar 11.196 4.2964 6.72806
78 Ar 11.1 4.32539 11.1707
79 Ar 11.1794 8.71141 1.99164
80 Ar 10.9508 8.94825 6.50349
81 Ar 11.0706 8.80425 11.1746
82 Ar 2.25888 2.25085 0.133362
83 Ar 2.21313 2.15936 4.48202
84 Ar 2.08583 2.21846 8.95546
85 Ar 2.32665 6.88498 0.104495
86 Ar 2.27794 6.75722 4.37659
87 Ar 2.14356 6.65443 8.99477
88 Ar 2.11883 11.109 0.0253706
89 Ar 2.20079 11.0927 4.57481
90 Ar 2.03695 11.0483 8.63971
91 Ar 6.7972 2.34284 -0.0980061
92 Ar 6.65772 2.20063 4.4532
93 Ar 6.52214 2.14886 8.80868
94 Ar 6.76266 6.60281 0.0471042
95 Ar 6.72246 6.6117 4.4544
96 Ar 6.50288 6.79611 8.85576
97 Ar 6.67391 11.1272 -0.00408256
98 Ar 6.89364 11.1104 4.44262
99 Ar 6.66564 11.248 8.89595
100 Ar 11.1495 2.19223 0.0100653
101 Ar 11.1412 2.26478 4.36751
102 Ar 11.1303 2.24172 9.0354
103 Ar 11.1447 6.47744 -0.16323
104 Ar 11.0523 6.61118 4.5579
105 Ar 11.2978 6.61248 8.89217
106 Ar 11.1433 11.2829 0.097633
107 Ar 11.1089 11.0823 4.17004
108 Ar 10.9381 11.0915 9.03307
ITEM: TIMESTEP
76010
ITEM: NUMBER OF ATOMS
108
ITEM: BOX BOUNDS pp pp pp
0.0000000000000000e+00 1.3349999400000000e+01
0.0000000000000000e+00 1.3349999400000000e+01
0.0000000000000000e+00 1.3349999400000000e+01
ITEM: ATOMS id element xu yu zu
1 Ar 0.0347958 0.0509021 -0.0455773
2 Ar 0.00291575 -0.108116 4.33519
3 Ar -0.253093 -0.267754 9.00819
4 Ar -0.11902 4.37812 -0.0779017
5 Ar -0.0780537 4.52257 4.3695
6 Ar 0.104547 4.40426 9.04298
7 Ar -0.0494254 8.98739 0.0257905
8 Ar -0.120126 8.7819 4.34783
9 Ar -0.063157 9.0308 8.92854
10 Ar 4.52026 -0.0585204 0.00589927
11 Ar 4.52486 0.0991198 4.48306
12 Ar 4.29232 0.00938545 9.08782
13 Ar 4.5053 4.31946 0.168302
14 Ar 4.52211 4.49798 4.45228
15 Ar 4.28237 4.5011 8.87829
16 Ar 4.55716 8.80311 0.00290663
17 Ar 4.57714 8.91519 4.6449
18 Ar 4.32791 9.046 8.59932
19 Ar 8.954 0.267557 0.130769
20 Ar 8.91976 0.0532185 4.50172
21 Ar 8.82621 0.0222728 9.06721
22 Ar 8.88616 4.35673 0.0243865
23 Ar 9.04076 4.47774 4.44146
24 Ar 8.80434 4.48046 9.02172
25 Ar 8.84021 8.80203 0.117659
26 Ar 8.891 9.01832 4.20348
27 Ar 8.75014 8.61988 8.97071
28 Ar 0.229395 2.02783 2.22897
29 Ar 0.183344 2.125 6.70841
30 Ar -0.0306522 2.28141 11.2188
31 Ar -0.0374127 6.68168 2.01833
32 Ar -0.0595238 6.67412 6.70218
33 Ar 0.0573519 6.91704 10.9893
34 Ar 0.0124438 11.0189 2.14022
35 Ar -0.162026 11.0878 6.54377
36 Ar 0.0549618 11.1821 11.262
37 Ar 4.38781 2.24966 2.25826
38 Ar 4.36704 2.25154 6.68008
39 Ar 4.23306 2.23908 11.0904
40 Ar 4.64657 6.65371 2.28042
41 Ar 4.41917 6.79329 6.60552
42 Ar 4.80417 6.64148 11.2006
43 Ar 4.59105 11.158 2.31537
44 Ar 4.54147 11.3509 6.63657
45 Ar 4.32534 11.1525 10.9269
46 Ar 8.97699 2.44155 2.26301
47 Ar 9.02015 1.93551 6.6911
48 Ar 8.87596 2.17527 11.0132
49 Ar 8.77303 6.74466 2.26143
50 Ar 8.96242 6.60478 6.5328
51 Ar 8.82006 6.66265 11.0915
52 Ar 9.03601 11.1844 2.10303
53 Ar 8.88863 11.0544 6.71209
54 Ar 8.81025 11.0629 11.1593
55 Ar 2.27229 -0.148165 2.15139
56 Ar 2.22854 -0.0934237 6.75687
57 Ar 2.28678 -0.0663138 11.2072
58 Ar 2.0273 4.62438 2.20771
59 Ar 2.38995 4.64596 6.58381
60 Ar 2.32973 4.6393 11.3664
61 Ar 2.33608 9.01804 2.36937
62 Ar 2.13895 8.78187 6.66748
63 Ar 2.2957 9.04792 11.0656
64 Ar 6.64648 0.169471 2.33528
65 Ar 6.70869 0.049677 6.72679
66 Ar 6.58992 0.0651744 11.1666
67 Ar 6.78606 4.47432 2.278
68 Ar 6.75896 4.4159 6.71797
69 Ar 6.68121 4.32301 10.9804
70 Ar 6.6598 8.82062 2.30574
71 Ar 6.84392 8.85532 6.54273
72 Ar 6.67119 9.12984 11.0089
73 Ar 11.1934 0.188143 2.13512
74 Ar 10.9534 -0.172681 6.74106
75 Ar 11.0809 -0.000274865 11.2182
76 Ar 11.2356 4.3935 2.09542
77 Ar 11.1839 4.28774 6.71265
78 Ar 11.0884 4.31836 11.1802
79 Ar 11.1982 8.69823 1.99817
80 Ar 10.9386 8.92632 6.51507
81 Ar 11.0817 8.81889 11.1554
82 Ar 2.26633 2.25332 0.177613
83 Ar 2.20622 2.15672 4.46818
84 Ar 2.07818 2.23632 8.96599
85 Ar 2.33019 6.88524 0.0813731
86 Ar 2.26238 6.74343 4.3842
87 Ar 2.15625 6.65703 8.99183
88 Ar 2.11988 11.091 0.018723
89 Ar 2.18473 11.0804 4.58184
90 Ar 2.02986 11.0619 8.64854
91 Ar 6.79568 2.33549 -0.0861397
92 Ar 6.64758 2.21079 4.4673
93 Ar 6.51279 2.14378 8.79154
94 Ar 6.79187 6.59944 0.0373016
95 Ar 6.73343 6.6019 4.48445
96 Ar 6.48491 6.78694 8.86535
97 Ar 6.66407 11.14 0.00408889
98 Ar 6.90235 11.1246 4.43126
99 Ar 6.68183 11.2554 8.89546
100 Ar 11.1445 2.18215 -0.00643713
101 Ar 11.1439 2.26528 4.38933
102 Ar 11.1214 2.2254 9.04489
103 Ar 11.141 6.4663 -0.174778
104 Ar 11.0347 6.61089 4.55322
105 Ar 11.2833 6.60223 8.90298
106 Ar 11.1413 11.2902 0.0806839
107 Ar 11.1119 11.0802 4.16249
108 Ar 10.9653 11.0887 9.02908
ITEM: TIMESTEP
76020
ITEM: NUMBER OF ATOMS
108
ITEM: BOX BOUNDS pp pp pp
0.0000000000000000e+00 1.3349999400000000e+01
0.0000000000000000e+00 1.3349999400000000e+01
0.0000000000000000e+00 1.3349999400000000e+01
ITEM: ATOMS id element xu yu zu
1 Ar 0.0575022 0.0359232 -0.0510314
2 Ar 0.0013765 -0.108995 4.34453
3 Ar -0.254741 -0.273832 9.00576
4 Ar -0.127853 4.39675 -0.0883447
5 Ar -0.0824948 4.48856 4.36821
6 Ar 0.0927226 4.39908 9.01916
7 Ar -0.0505085 8.99358 0.0199764
8 Ar -0.144809 8.80488 4.35529
9 Ar -0.0653756 9.04211 8.93365
10 Ar 4.52012 -0.0554398 -0.00209966
11 Ar 4.53583 0.0962796 4.50438
12 Ar 4.28579 0.0233321 9.07174
13 Ar 4.47578 4.31906 0.154426
14 Ar 4.51948 4.51542 4.45423
15 Ar 4.29322 4.50278 8.87064
16 Ar 4.56529 8.80051 0.0129837
17 Ar 4.55194 8.93135 4.65035
18 Ar 4.3282 9.07948 8.59798
19 Ar 8.95406 0.255793 0.13837
20 Ar 8.92846 0.0596832 4.52133
21 Ar 8.80721 0.0411662 9.06684
22 Ar 8.89094 4.36114 0.0301655
23 Ar 9.04399 4.47789 4.42741
24 Ar 8.80326 4.49665 9.02184
25 Ar 8.82223 8.79631 0.104575
26 Ar 8.89517 8.99006 4.21159
27 Ar 8.76903 8.63852 8.95715
28 Ar 0.213688 2.02825 2.24669
29 Ar 0.164813 2.11883 6.70312
30 Ar -0.0417831 2.27593 11.2216
31 Ar -0.0146586 6.68178 2.03751
32 Ar -0.0432037 6.68322 6.69321
33 Ar 0.0695844 6.92161 10.9946
34 Ar 0.0232162 11.0107 2.11927
35 Ar -0.176524 11.065 6.5621
36 Ar 0.0418861 11.1866 11.2659
37 Ar 4.37502 2.23428 2.2577
38 Ar 4.36954 2.23265 6.68039
39 Ar 4.25528 2.23951 11.1159
40 Ar 4.64042 6.65486 2.27067
41 Ar 4.44191 6.7788 6.60446
42 Ar 4.78798 6.64524 11.1791
43 Ar 4.59633 11.1324 2.30047
44 Ar 4.54787 11.3333 6.61984
45 Ar 4.35007 11.1665 10.9253
46 Ar 8.96624 2.42141 2.28178
47 Ar 9.0263 1.9614 6.68218
48 Ar 8.89909 2.18078 11.0298
49 Ar 8.76244 6.71269 2.25695
50 Ar 8.98004 6.6056 6.52252
51 Ar 8.80817 6.66607 11.0949
52 Ar 9.03211 11.1769 2.09828
53 Ar 8.88773 11.0666 6.68609
54 Ar 8.80197 11.0753 11.1608
55 Ar 2.26311 -0.126972 2.16622
56 Ar 2.22015 -0.0782567 6.76245
57 Ar 2.30186 -0.0578338 11.2042
58 Ar 2.04063 4.6354 2.2027
59 Ar 2.39458 4.64647 6.5944
60 Ar 2.32717 4.63071 11.3731
61 Ar 2.33352 9.01065 2.38245
62 Ar 2.14178 8.76568 6.63888
63 Ar 2.28071 9.04238 11.0686
64 Ar 6.66408 0.173532 2.34848
65 Ar 6.7236 0.0523717 6.71605
66 Ar 6.58562 0.0667456 11.1473
67 Ar 6.79385 4.4667 2.2838
68 Ar 6.77516 4.3958 6.72255
69 Ar 6.68641 4.32719 10.993
70 Ar 6.65 8.81703 2.31841
71 Ar 6.85138 8.88709 6.52015
72 Ar 6.66728 9.1492 11.0055
73 Ar 11.1948 0.196918 2.12157
74 Ar 10.9519 -0.15402 6.733
75 Ar 11.0862 -0.00946312 11.2277
76 Ar 11.2413 4.39826 2.11801
77 Ar 11.1717 4.27939 6.69857
78 Ar 11.076 4.31339 11.1874
79 Ar 11.2142 8.68649 2.00705
80 Ar 10.9281 8.90424 6.52907
81 Ar 11.0919 8.83533 11.1369
82 Ar 2.27372 2.25549 0.218344
83 Ar 2.19989 2.1554 4.45426
84 Ar 2.07193 2.25293 8.97655
85 Ar 2.33285 6.88429 0.0572748
86 Ar 2.24606 6.72943 4.3912
87 Ar 2.17123 6.66119 8.98778
88 Ar 2.12531 11.0724 0.0123864
89 Ar 2.16979 11.0683 4.58785
90 Ar 2.0247 11.0765 8.66017
91 Ar 6.79083 2.32617 -0.0728178
92 Ar 6.63908 2.2233 4.48265
93 Ar 6.50449 2.14009 8.7762
94 Ar 6.81992 6.59576 0.0265753
95 Ar 6.7443 6.59249 4.51533
96 Ar 6.46792 6.77579 8.87317
97 Ar 6.65482 11.153 0.0130853
98 Ar 6.90794 11.1407 4.41955
99 Ar 6.69756 11.2614 8.89396
100 Ar 11.14 2.17367 -0.0232205
101 Ar 11.1486 2.26428 4.4125
102 Ar 11.1138 2.20822 9.05131
103 Ar 11.1359 6.45837 -0.185349
104 Ar 11.0198 6.6117 4.54478
105 Ar 11.2655 6.59209 8.9135
106 Ar 11.1388 11.2952 0.0615901
107 Ar 11.1153 11.0791 4.15737
108 Ar 10.9918 11.0836 9.02446
ITEM: TIMESTEP
76030
ITEM: NUMBER OF ATOMS
108
ITEM: BOX BOUNDS pp pp pp
0.0000000000000000e+00 1.3349999400000000e+01
0.0000000000000000e+00 1.3349999400000000e+01
0.0000000000000000e+00 1.3349999400000000e+01
ITEM: ATOMS id element xu yu zu
1 Ar 0.080434 0.0211925 -0.0556222
2 Ar -0.000814953 -0.109494 4.3559
3 Ar -0.253165 -0.275516 9.00164
4 Ar -0.132443 4.41614 -0.0980167
5 Ar -0.0852758 4.45431 4.3687
6 Ar 0.0798125 4.39512 8.99432
7 Ar -0.050381 8.99712 0.0114572
8 Ar -0.168294 8.82782 4.36333
9 Ar -0.0686761 9.05237 8.93702
10 Ar 4.51921 -0.0514558 -0.00926359
11 Ar 4.54473 0.0915952 4.52473
12 Ar 4.28055 0.0378501 9.05123
13 Ar 4.44734 4.32158 0.139432
14 Ar 4.51596 4.53132 4.4555
15 Ar 4.30591 4.50361 8.86397
16 Ar 4.57355 8.80077 0.0226284
17 Ar 4.52587 8.94896 4.65291
18 Ar 4.33069 9.11164 8.59946
19 Ar 8.95115 0.240455 0.144361
20 Ar 8.9377 0.06468 4.5371
21 Ar 8.78972 0.0585692 9.06467
22 Ar 8.89677 4.36733 0.0344696
23 Ar 9.04525 4.47591 4.41425
24 Ar 8.8044 4.51245 9.01823
25 Ar 8.8055 8.79267 0.0891402
26 Ar 8.90158 8.96011 4.22133
27 Ar 8.79073 8.6602 8.94112
28 Ar 0.194806 2.03246 2.26462
29 Ar 0.143134 2.11336 6.69746
30 Ar -0.0502123 2.26818 11.223
31 Ar 0.00813193 6.68233 2.05817
32 Ar -0.0269848 6.69156 6.68398
33 Ar 0.0814952 6.92302 11.0038
34 Ar 0.0335459 11.0047 2.10082
35 Ar -0.191507 11.0421 6.58039
36 Ar 0.0273447 11.1894 11.2679
37 Ar 4.36374 2.21907 2.25845
38 Ar 4.37135 2.21401 6.68101
39 Ar 4.2795 2.24127 11.1426
40 Ar 4.6314 6.65586 2.26068
41 Ar 4.46598 6.76253 6.6048
42 Ar 4.76716 6.64996 11.1584
43 Ar 4.60046 11.1069 2.28593
44 Ar 4.55424 11.3139 6.60339
45 Ar 4.37604 11.1785 10.9267
46 Ar 8.95473 2.39817 2.30109
47 Ar 9.03067 1.99357 6.67502
48 Ar 8.92096 2.18711 11.0483
49 Ar 8.75625 6.6787 2.25245
50 Ar 8.99583 6.60644 6.51699
51 Ar 8.79665 6.66883 11.0996
52 Ar 9.02522 11.1703 2.09332
53 Ar 8.88696 11.0794 6.66103
54 Ar 8.79623 11.0894 11.1638
55 Ar 2.25539 -0.106921 2.1827
56 Ar 2.2109 -0.0614334 6.76669
57 Ar 2.3134 -0.0481818 11.2011
58 Ar 2.05704 4.64401 2.19769
59 Ar 2.39497 4.64433 6.605
60 Ar 2.32339 4.6214 11.3784
61 Ar 2.33131 9.00201 2.39398
62 Ar 2.14312 8.75092 6.60975
63 Ar 2.26645 9.0349 11.0716
64 Ar 6.68309 0.175926 2.35902
65 Ar 6.73786 0.0539852 6.70445
66 Ar 6.58206 0.0681 11.1287
67 Ar 6.79949 4.45761 2.28955
68 Ar 6.79063 4.37592 6.72697
69 Ar 6.68973 4.33154 11.007
70 Ar 6.63947 8.81594 2.3298
71 Ar 6.85798 8.91891 6.50021
72 Ar 6.66096 9.16495 11.0037
73 Ar 11.1957 0.20335 2.11101
74 Ar 10.9547 -0.135063 6.72453
75 Ar 11.0908 -0.0190222 11.2364
76 Ar 11.246 4.40401 2.14192
77 Ar 11.1596 4.27173 6.6862
78 Ar 11.0633 4.31052 11.1918
79 Ar 11.2268 8.67615 2.01779
80 Ar 10.9197 8.88245 6.54541
81 Ar 11.1007 8.85317 11.1195
82 Ar 2.2804 2.25732 0.254798
83 Ar 2.19438 2.1555 4.44073
84 Ar 2.06727 2.26818 8.98711
85 Ar 2.33456 6.88232 0.0325575
86 Ar 2.22911 6.71531 4.39753
87 Ar 2.18822 6.66684 8.98271
88 Ar 2.13535 11.0535 0.0064657
89 Ar 2.15597 11.0569 4.59284
90 Ar 2.02164 11.0919 8.67427
91 Ar 6.78284 2.31513 -0.0582079
92 Ar 6.63221 2.238 4.49894
93 Ar 6.49747 2.13803 8.76316
94 Ar 6.84563 6.59163 0.0149219
95 Ar 6.75472 6.58366 4.54638
96 Ar 6.45274 6.76344 8.8788
97 Ar 6.6464 11.1662 0.0227225
98 Ar 6.91053 11.1584 4.40732
99 Ar 6.71265 11.2659 8.8911
100 Ar 11.136 2.16709 -0.0397063
101 Ar 11.155 2.26149 4.43644
102 Ar 11.1075 2.19049 9.05453
103 Ar 11.1297 6.45416 -0.194646
104 Ar 11.0081 6.61351 4.53248
105 Ar 11.245 6.58212 8.92358
106 Ar 11.1355 11.2975 0.0409563
107 Ar 11.1189 11.0789 4.15458
108 Ar 11.0167 11.0765 9.01908
ITEM: TIMESTEP
76040
ITEM: NUMBER OF ATOMS
108
ITEM: BOX BOUNDS pp pp pp
0.0000000000000000e+00 1.3349999400000000e+01
0.0000000000000000e+00 1.3349999400000000e+01
0.0000000000000000e+00 1.3349999400000000e+01
ITEM: ATOMS id element xu yu zu
1 Ar 0.103382 0.00712012 -0.059079
2 Ar -0.00371682 -0.109889 4.36919
3 Ar -0.248376 -0.272588 8.9959
4 Ar -0.132814 4.4359 -0.106662
5 Ar -0.0861561 4.42041 4.37108
6 Ar 0.0658156 4.39258 8.96878
7 Ar -0.0492465 8.99768 0.000411222
8 Ar -0.190273 8.85034 4.3719
9 Ar -0.0726784 9.06103 8.93862
10 Ar 4.5175 -0.0466839 -0.015252
11 Ar 4.55143 0.0850478 4.54355
12 Ar 4.27663 0.0526556 9.02665
13 Ar 4.42079 4.32706 0.123824
14 Ar 4.51156 4.54534 4.45606
15 Ar 4.3203 4.5033 8.85844
16 Ar 4.58188 8.80364 0.0315276
17 Ar 4.49946 8.96732 4.6526
18 Ar 4.3352 9.14188 8.60352
19 Ar 8.94523 0.221821 0.148575
20 Ar 8.94743 0.0682672 4.54872
21 Ar 8.77428 0.0744087 9.06064
22 Ar 8.90354 4.37464 0.0376131
23 Ar 9.04454 4.47173 4.40225
24 Ar 8.80762 4.52757 9.01117
25 Ar 8.79045 8.79131 0.0718794
26 Ar 8.91003 8.92908 4.23218
27 Ar 8.81439 8.6844 8.92309
28 Ar 0.172806 2.04045 2.28222
29 Ar 0.118744 2.10863 6.69165
30 Ar -0.0557935 2.25842 11.2231
31 Ar 0.0306397 6.68343 2.07998
32 Ar -0.0115272 6.69887 6.67472
33 Ar 0.092766 6.92115 11.0164
34 Ar 0.0431985 11.0011 2.08517
35 Ar -0.2068 11.0195 6.59837
36 Ar 0.0118485 11.1905 11.2678
37 Ar 4.35466 2.2043 2.26079
38 Ar 4.3722 2.1961 6.68181
39 Ar 4.30532 2.24427 11.1699
40 Ar 4.61992 6.65657 2.25066
41 Ar 4.49102 6.74513 6.60647
42 Ar 4.742 6.65574 11.1392
43 Ar 4.60312 11.0822 2.27202
44 Ar 4.56044 11.2934 6.58751
45 Ar 4.40257 11.1885 10.9309
46 Ar 8.94292 2.37222 2.32056
47 Ar 9.03308 2.03148 6.66981
48 Ar 8.94094 2.19409 11.0684
49 Ar 8.75449 6.64364 2.24794
50 Ar 9.00931 6.60707 6.51656
51 Ar 8.78575 6.67129 11.1051
52 Ar 9.01572 11.1642 2.08831
53 Ar 8.88687 11.0929 6.63722
54 Ar 8.79316 11.105 11.1681
55 Ar 2.24937 -0.0887921 2.20063
56 Ar 2.20089 -0.0434566 6.76947
57 Ar 2.32135 -0.0375398 11.1981
58 Ar 2.07623 4.65008 2.19281
59 Ar 2.39122 4.63942 6.61549
60 Ar 2.31823 4.61124 11.3819
61 Ar 2.32932 8.99204 2.40378
62 Ar 2.14324 8.73794 6.58102
63 Ar 2.25344 9.02603 11.0744
64 Ar 6.70296 0.176683 2.36699
65 Ar 6.75136 0.0544372 6.69219
66 Ar 6.5793 0.0694396 11.1112
67 Ar 6.80243 4.44711 2.29507
68 Ar 6.80527 4.35662 6.73119
69 Ar 6.69125 4.33585 11.0224
70 Ar 6.62877 8.81692 2.34009
71 Ar 6.86347 8.95023 6.48323
72 Ar 6.65249 9.17676 11.0034
73 Ar 11.1962 0.20721 2.10358
74 Ar 10.9619 -0.116076 6.71603
75 Ar 11.0946 -0.0288149 11.244
76 Ar 11.2497 4.41044 2.16647
77 Ar 11.1479 4.26521 6.67586
78 Ar 11.0504 4.3098 11.1931
79 Ar 11.2356 8.66722 2.02988
80 Ar 10.9134 8.86136 6.56392
81 Ar 11.1082 8.87194 11.1036
82 Ar 2.28572 2.25875 0.286335
83 Ar 2.18989 2.15706 4.42807
84 Ar 2.06435 2.28198 8.99763
85 Ar 2.33529 6.87954 0.0076126
86 Ar 2.21171 6.7011 4.4031
87 Ar 2.20691 6.6739 8.97675
88 Ar 2.1501 11.0348 0.00101228
89 Ar 2.14321 11.0467 4.59682
90 Ar 2.02079 11.1078 8.69052
91 Ar 6.772 2.30264 -0.0424757
92 Ar 6.62689 2.2546 4.51578
93 Ar 6.49192 2.13775 8.75281
94 Ar 6.86793 6.58699 0.00245437
95 Ar 6.76442 6.57555 4.57688
96 Ar 6.44016 6.7506 8.88202
97 Ar 6.63904 11.1794 0.0327802
98 Ar 6.9103 11.1773 4.39443
99 Ar 6.72696 11.269 8.8866
100 Ar 11.1327 2.16258 -0.0553066
101 Ar 11.1628 2.25667 4.46057
102 Ar 11.1025 2.1725 9.05452
103 Ar 11.1222 6.45407 -0.202407
104 Ar 11.0005 6.61614 4.5164
105 Ar 11.2226 6.57242 8.93312
106 Ar 11.1315 11.297 0.0194641
107 Ar 11.1225 11.0798 4.15398
108 Ar 11.0391 11.0679 9.01282
ITEM: TIMESTEP
76050
ITEM: NUMBER OF ATOMS
108
ITEM: BOX BOUNDS pp pp pp
0.0000000000000000e+00 1.3349999400000000e+01
0.0000000000000000e+00 1.3349999400000000e+01
0.0000000000000000e+00 1.3349999400000000e+01
ITEM: ATOMS id element xu yu zu
1 Ar 0.126118 -0.00596259 -0.0611471
2 Ar -0.00733481 -0.110401 4.38425
3 Ar -0.240479 -0.264973 8.9887
4 Ar -0.129139 4.45565 -0.114061
5 Ar -0.0849102 4.38749 4.37548
6 Ar 0.0507739 4.39162 8.94288
7 Ar -0.047331 8.99508 -0.0128414
8 Ar -0.210449 8.87207 4.38091
9 Ar -0.0769511 9.06748 8.9385
10 Ar 4.51494 -0.0412572 -0.0197733
11 Ar 4.55586 0.0766986 4.56031
12 Ar 4.27403 0.067408 8.99856
13 Ar 4.39685 4.3355 0.108091
14 Ar 4.50629 4.55723 4.45587
15 Ar 4.33617 4.50157 8.85416
16 Ar 4.59021 8.8088 0.0393876
17 Ar 4.47326 8.98569 4.6495
18 Ar 4.3415 9.16966 8.60991
19 Ar 8.93641 0.200266 0.150871
20 Ar 8.95759 0.0705938 4.55608
21 Ar 8.76137 0.0886894 9.05476
22 Ar 8.9111 4.38237 0.0399166
23 Ar 9.04195 4.4654 4.39167
24 Ar 8.81268 4.5417 9.00105
25 Ar 8.77742 8.79233 0.0533151
26 Ar 8.92021 8.89763 4.24367
27 Ar 8.83917 8.71061 8.90361
28 Ar 0.147876 2.05207 2.29895
29 Ar 0.092145 2.10469 6.68597
30 Ar -0.0584855 2.24697 11.2219
31 Ar 0.0525527 6.68516 2.10261
32 Ar 0.00254411 6.70489 6.66568
33 Ar 0.103068 6.91592 11.0317
34 Ar 0.0519811 11.0001 2.0725
35 Ar -0.222167 10.9976 6.61579
36 Ar -0.00404986 11.19 11.2657
37 Ar 4.34845 2.19023 2.26495
38 Ar 4.37188 2.1794 6.68268
39 Ar 4.3323 2.24839 11.1973
40 Ar 4.6064 6.65693 2.24079
41 Ar 4.51652 6.72725 6.60934
42 Ar 4.71283 6.66264 11.122
43 Ar 4.60399 11.059 2.25895
44 Ar 4.5663 11.2726 6.5725
45 Ar 4.429 11.1967 10.9378
46 Ar 8.93127 2.34406 2.33979
47 Ar 9.03342 2.07432 6.66666
48 Ar 8.95842 2.20148 11.09
49 Ar 8.75705 6.6085 2.24342
50 Ar 9.02016 6.60725 6.52131
51 Ar 8.77572 6.67382 11.1107
52 Ar 9.00403 11.1584 2.08345
53 Ar 8.88796 11.1068 6.61494
54 Ar 8.79274 11.1221 11.1736
55 Ar 2.24512 -0.0732234 2.21983
56 Ar 2.19018 -0.0248295 6.7707
57 Ar 2.32582 -0.0261029 11.195
58 Ar 2.09787 4.65355 2.18815
59 Ar 2.38351 4.63168 6.62576
60 Ar 2.31156 4.60006 11.383
61 Ar 2.32743 8.98068 2.41168
62 Ar 2.1424 8.72705 6.55357
63 Ar 2.24213 9.0163 11.0767
64 Ar 6.72314 0.175872 2.37257
65 Ar 6.76401 0.0537388 6.6795
66 Ar 6.57738 0.0709401 11.095
67 Ar 6.80219 4.43532 2.30015
68 Ar 6.81893 4.33829 6.73517
69 Ar 6.69111 4.33999 11.039
70 Ar 6.61845 8.81949 2.34942
71 Ar 6.86761 8.98055 6.46943
72 Ar 6.64226 9.18437 11.0044
73 Ar 11.1964 0.208311 2.09929
74 Ar 10.9732 -0.0972711 6.70783
75 Ar 11.0975 -0.038646 11.25
76 Ar 11.2522 4.41729 2.19095
77 Ar 11.1367 4.26031 6.66777
78 Ar 11.0378 4.31123 11.1912
79 Ar 11.2404 8.65971 2.04278
80 Ar 10.9094 8.84132 6.58436
81 Ar 11.114 8.89116 11.0896
82 Ar 2.28907 2.25972 0.312453
83 Ar 2.18659 2.16011 4.41671
84 Ar 2.06325 2.29432 9.008
85 Ar 2.33505 6.87614 -0.0171369
86 Ar 2.19409 6.68683 4.40788
87 Ar 2.22694 6.68226 8.97002
88 Ar 2.16949 11.0166 -0.00396017
89 Ar 2.13141 11.0382 4.59982
90 Ar 2.0222 11.124 8.70856
91 Ar 6.75868 2.28903 -0.0257808
92 Ar 6.623 2.27271 4.5328
93 Ar 6.48798 2.13932 8.74548
94 Ar 6.88582 6.58179 -0.0105959
95 Ar 6.7732 6.56831 4.60618
96 Ar 6.43087 6.73792 8.88276
97 Ar 6.63293 11.1925 0.0430122
98 Ar 6.90745 11.1968 4.3808
99 Ar 6.74037 11.2706 8.88029
100 Ar 11.1302 2.16022 -0.0694437
101 Ar 11.1719 2.24963 4.48428
102 Ar 11.099 2.15453 9.05135
103 Ar 11.1139 6.45838 -0.208412
104 Ar 10.9972 6.61938 4.4968
105 Ar 11.1988 6.56314 8.94207
106 Ar 11.1266 11.2935 -0.0021545
107 Ar 11.1258 11.0818 4.15538
108 Ar 11.0583 11.0585 9.0056
ITEM: TIMESTEP
76060
ITEM: NUMBER OF ATOMS
108
ITEM: BOX BOUNDS pp pp pp
0.0000000000000000e+00 1.3349999400000000e+01
0.0000000000000000e+00 1.3349999400000000e+01
0.0000000000000000e+00 1.3349999400000000e+01
ITEM: ATOMS id element xu yu zu
1 Ar 0.148393 -0.0178182 -0.0616053
2 Ar -0.0116225 -0.111192 4.40086
3 Ar -0.229661 -0.25275 8.9802
4 Ar -0.121731 4.47509 -0.120028
5 Ar -0.0813547 4.35613 4.38196
6 Ar 0.0347773 4.39233 8.91694
7 Ar -0.0448601 8.98928 -0.0278504
8 Ar -0.228547 8.89266 4.39028
9 Ar -0.0810336 9.07118 8.9368
10 Ar 4.51152 -0.0353234 -0.0225912
11 Ar 4.558 0.0666799 4.57456
12 Ar 4.27277 0.0817224 8.96766
13 Ar 4.37613 4.34682 0.0926879
14 Ar 4.50017 4.5668 4.45497
15 Ar 4.35324 4.49817 8.8512
16 Ar 4.59845 8.81591 0.0459437
17 Ar 4.44787 9.00332 4.64368
18 Ar 4.34933 9.19449 8.61838
19 Ar 8.92493 0.176245 0.151128
20 Ar 8.96814 0.071877 4.55923
21 Ar 8.75138 0.10147 9.04702
22 Ar 8.91928 4.38987 0.0416848
23 Ar 9.03763 4.45702 4.38279
24 Ar 8.81929 4.55452 8.98836
25 Ar 8.76665 8.7958 0.0339492
26 Ar 8.93178 8.86637 4.25536
27 Ar 8.86422 8.73837 8.88331
28 Ar 0.120339 2.06706 2.3143
29 Ar 0.0639012 2.10159 6.68068
30 Ar -0.0583506 2.2342 11.2195
31 Ar 0.0735661 6.68753 2.12571
32 Ar 0.0146612 6.70942 6.65707
33 Ar 0.112075 6.90731 11.0489
34 Ar 0.0597478 11.0016 2.06283
35 Ar -0.237317 10.9769 6.6324
36 Ar -0.019778 11.1879 11.2615
37 Ar 4.34565 2.17708 2.27104
38 Ar 4.37025 2.16438 6.68348
39 Ar 4.35999 2.25344 11.2241
40 Ar 4.59127 6.6569 2.23122
41 Ar 4.54191 6.7095 6.61322
42 Ar 4.68009 6.67068 11.107
43 Ar 4.60281 11.0379 2.24695
44 Ar 4.57169 11.252 6.55863
45 Ar 4.4547 11.2032 10.9471
46 Ar 8.92021 2.31422 2.35837
47 Ar 9.03165 2.12103 6.66554
48 Ar 8.97288 2.20903 11.1125
49 Ar 8.76368 6.57417 2.23886
50 Ar 9.02825 6.60671 6.53112
51 Ar 8.76679 6.67671 11.1156
52 Ar 8.99064 11.1525 2.07895
53 Ar 8.89071 11.1211 6.59436
54 Ar 8.79479 11.1402 11.18
55 Ar 2.24262 -0.060695 2.2401
56 Ar 2.1788 -0.00603677 6.77032
57 Ar 2.32707 -0.0140691 11.1919
58 Ar 2.12158 4.6544 2.18384
59 Ar 2.37215 4.62113 6.63577
60 Ar 2.30331 4.58775 11.3813
61 Ar 2.32544 8.96794 2.41755
62 Ar 2.14091 8.71847 6.52821
63 Ar 2.23285 9.00621 11.0784
64 Ar 6.74304 0.173589 2.37596
65 Ar 6.77574 0.0519912 6.6666
66 Ar 6.57631 0.072745 11.0805
67 Ar 6.79846 4.42238 2.3046
68 Ar 6.8314 4.32136 6.73889
69 Ar 6.68951 4.3439 11.0564
70 Ar 6.60909 8.8231 2.35797
71 Ar 6.87018 9.00942 6.45888
72 Ar 6.63075 9.18765 11.0064
73 Ar 11.1962 0.206508 2.09801
74 Ar 10.9881 -0.0788161 6.70024
75 Ar 11.0995 -0.0482673 11.2541
76 Ar 11.2535 4.42433 2.21471
77 Ar 11.1265 4.25752 6.66206
78 Ar 11.026 4.31481 11.186
79 Ar 11.2412 8.65368 2.05592
80 Ar 10.9078 8.82261 6.6064
81 Ar 11.1181 8.9103 11.0776
82 Ar 2.28996 2.26017 0.332817
83 Ar 2.18459 2.16465 4.407
84 Ar 2.064 2.30522 9.01813
85 Ar 2.3339 6.87232 -0.0412429
86 Ar 2.17652 6.67248 4.41189
87 Ar 2.24793 6.69179 8.96261
88 Ar 2.19327 10.9992 -0.00845913
89 Ar 2.12046 11.0316 4.60185
90 Ar 2.02587 11.1401 8.72809
91 Ar 6.74328 2.27462 -0.00827315
92 Ar 6.62039 2.29181 4.54959
93 Ar 6.48579 2.14276 8.7414
94 Ar 6.89852 6.57605 -0.0238903
95 Ar 6.78096 6.56205 4.63362
96 Ar 6.42543 6.72593 8.88114
97 Ar 6.62823 11.2055 0.0531585
98 Ar 6.90223 11.2165 4.36644
99 Ar 6.7528 11.2709 8.8721
100 Ar 11.1285 2.15999 -0.0815723
101 Ar 11.1816 2.24028 4.507
102 Ar 11.0969 2.13686 9.04521
103 Ar 11.1047 6.46718 -0.212502
104 Ar 10.9985 6.62298 4.47414
105 Ar 11.1744 6.55446 8.95043
106 Ar 11.121 11.2868 -0.0231496
107 Ar 11.1284 11.0851 4.15857
108 Ar 11.0739 11.0489 8.99735
ITEM: TIMESTEP
76070
ITEM: NUMBER OF ATOMS
108
ITEM: BOX BOUNDS pp pp pp
0.0000000000000000e+00 1.3349999400000000e+01
0.0000000000000000e+00 1.3349999400000000e+01
0.0000000000000000e+00 1.3349999400000000e+01
ITEM: ATOMS id element xu yu zu
1 Ar 0.169941 -0.028309 -0.06028
2 Ar -0.0164851 -0.112365 4.41874
3 Ar -0.216177 -0.236159 8.97062
4 Ar -0.111032 4.49395 -0.124405
5 Ar -0.0753749 4.32697 4.39057
6 Ar 0.017965 4.39474 8.89127
7 Ar -0.0420396 8.98043 -0.0440606
8 Ar -0.244322 8.91179 4.39989
9 Ar -0.0844647 9.07159 8.93371
10 Ar 4.50718 -0.0290411 -0.0235276
11 Ar 4.55789 0.0551837 4.5859
12 Ar 4.27283 0.095185 8.93475
13 Ar 4.35913 4.36091 0.0780044
14 Ar 4.4932 4.57394 4.45341
15 Ar 4.3712 4.49296 8.84958
16 Ar 4.6065 8.82456 0.050971
17 Ar 4.42388 9.01948 4.63525
18 Ar 4.35846 9.21595 8.62871
19 Ar 8.91111 0.150282 0.149257
20 Ar 8.97904 0.0723681 4.5584
21 Ar 8.7446 0.11284 9.03749
22 Ar 8.92787 4.39649 0.0431865
23 Ar 9.03179 4.44678 4.37585
24 Ar 8.82709 4.56574 8.97366
25 Ar 8.75824 8.80174 0.0142474
26 Ar 8.94437 8.83592 4.2669
27 Ar 8.88873 8.76727 8.86285
28 Ar 0.0906411 2.08502 2.3278
29 Ar 0.0346367 2.09936 6.6761
30 Ar -0.0555487 2.22049 11.216
31 Ar 0.0933823 6.69054 2.14894
32 Ar 0.0243327 6.71228 6.64912
33 Ar 0.11948 6.89538 11.0673
34 Ar 0.0664011 11.0055 2.05606
35 Ar -0.251918 10.9577 6.64799
36 Ar -0.0347681 11.1845 11.2553
37 Ar 4.34666 2.16506 2.2791
38 Ar 4.36728 2.15146 6.68408
39 Ar 4.3879 2.2592 11.2499
40 Ar 4.57499 6.65651 2.22208
41 Ar 4.56653 6.6924 6.61792
42 Ar 4.64434 6.67984 11.0943
43 Ar 4.59932 11.0195 2.2362
44 Ar 4.57643 11.2322 6.54617
45 Ar 4.47904 11.2086 10.9585
46 Ar 8.91015 2.2833 2.37592
47 Ar 9.02776 2.17033 6.66638
48 Ar 8.9839 2.21644 11.1357
49 Ar 8.77399 6.54148 2.23421
50 Ar 9.03357 6.60525 6.54565
51 Ar 8.75916 6.6802 11.1194
52 Ar 8.97602 11.1464 2.07503
53 Ar 8.8955 11.1357 6.5756
54 Ar 8.799 11.1593 11.1871
55 Ar 2.24176 -0.0515183 2.26126
56 Ar 2.1668 0.0124699 6.76828
57 Ar 2.32547 -0.00163226 11.1885
58 Ar 2.1469 4.65266 2.18
59 Ar 2.35751 4.60787 6.64547
60 Ar 2.29344 4.57417 11.3765
61 Ar 2.32319 8.95389 2.42125
62 Ar 2.13905 8.71239 6.50569
63 Ar 2.22584 8.99619 11.0793
64 Ar 6.76203 0.169944 2.37742
65 Ar 6.78652 0.0493752 6.65372
66 Ar 6.57611 0.0749602 11.0677
67 Ar 6.79106 4.40848 2.30823
68 Ar 6.84242 4.30629 6.74236
69 Ar 6.68668 4.34755 11.0743
70 Ar 6.60122 8.82723 2.3659
71 Ar 6.87098 9.03645 6.45155
72 Ar 6.61853 9.18655 11.0093
73 Ar 11.1957 0.201697 2.09949
74 Ar 11.0063 -0.0608674 6.6935
75 Ar 11.1007 -0.0573909 11.256
76 Ar 11.2537 4.43132 2.23713
77 Ar 11.1173 4.25734 6.65875
78 Ar 11.0153 4.3205 11.1775
79 Ar 11.2381 8.64921 2.06878
80 Ar 10.9088 8.80545 6.62959
81 Ar 11.1203 8.92885 11.0679
82 Ar 2.28803 2.26005 0.34727
83 Ar 2.18392 2.17063 4.39923
84 Ar 2.06658 2.31477 9.02788
85 Ar 2.33192 6.86821 -0.0642405
86 Ar 2.15929 6.65801 4.41517
87 Ar 2.26946 6.70235 8.9546
88 Ar 2.22105 10.9829 -0.0125003
89 Ar 2.11024 11.0273 4.60293
90 Ar 2.03174 11.1559 8.74879
91 Ar 6.72628 2.25974 0.00990795
92 Ar 6.61887 2.31134 4.56574
93 Ar 6.48543 2.148 8.7407
94 Ar 6.9054 6.56986 -0.0370098
95 Ar 6.78767 6.55684 4.65861
96 Ar 6.42426 6.71508 8.87747
97 Ar 6.62501 11.2181 0.0629571
98 Ar 6.89486 11.2359 4.35144
99 Ar 6.76422 11.2697 8.86207
100 Ar 11.1276 2.16177 -0.0912053
101 Ar 11.1917 2.22862 4.52819
102 Ar 11.096 2.11977 9.03639
103 Ar 11.0949 6.48042 -0.214581
104 Ar 11.0043 6.62661 4.44909
105 Ar 11.15 6.54659 8.95824
106 Ar 11.1146 11.2768 -0.0427877
107 Ar 11.13 11.0895 4.16335
108 Ar 11.0856 11.0399 8.98803
ITEM: TIMESTEP
76080
ITEM: NUMBER OF ATOMS
108
ITEM: BOX BOUNDS pp pp pp
0.0000000000000000e+00 1.3349999400000000e+01
0.0000000000000000e+00 1.3349999400000000e+01
0.0000000000000000e+00 1.3349999400000000e+01
ITEM: ATOMS id element xu yu zu
1 Ar 0.190489 -0.0373952 -0.0570557
2 Ar -0.0217855 -0.113965 4.43758
3 Ar -0.200328 -0.215583 8.96021
4 Ar -0.0975815 4.51199 -0.127051
5 Ar -0.0669481 4.30056 4.40133
6 Ar 0.000523355 4.39879 8.86622
7 Ar -0.039041 8.96881 -0.0608488
8 Ar -0.257571 8.9292 4.40961
9 Ar -0.0868159 9.06828 8.92947
10 Ar 4.50188 -0.0225737 -0.0224635
11 Ar 4.55559 0.0424502 4.59407
12 Ar 4.27422 0.107371 8.90069
13 Ar 4.34619 4.37758 0.0643477
14 Ar 4.48541 4.57858 4.45129
15 Ar 4.38972 4.48583 8.84929
16 Ar 4.61428 8.83433 0.0542957
17 Ar 4.40182 9.03348 4.62434
18 Ar 4.36862 9.23372 8.64071
19 Ar 8.89541 0.122956 0.145206
20 Ar 8.99027 0.0723154 4.55395
21 Ar 8.74123 0.122894 9.02626
22 Ar 8.9367 4.40172 0.0446408
23 Ar 9.02467 4.43494 4.37106
24 Ar 8.83567 4.57505 8.95758
25 Ar 8.75221 8.81006 -0.005371
26 Ar 8.95758 8.80683 4.27804
27 Ar 8.91191 8.79695 8.84287
28 Ar 0.0593266 2.10548 2.33903
29 Ar 0.00502836 2.09807 6.67255
30 Ar -0.0503311 2.20623 11.2114
31 Ar 0.11171 6.6941 2.17192
32 Ar 0.0311631 6.71338 6.64202
33 Ar 0.12501 6.88021 11.0861
34 Ar 0.0718899 11.0117 2.052
35 Ar -0.265615 10.9405 6.66236
36 Ar -0.048483 11.18 11.2472
37 Ar 4.35166 2.15431 2.289
38 Ar 4.36299 2.14105 6.68429
39 Ar 4.41554 2.26543 11.2742
40 Ar 4.55797 6.65586 2.21349