ITEM: TIMESTEP
70000
ITEM: NUMBER OF ATOMS
108
ITEM: BOX BOUNDS pp pp pp
0.0000000000000000e+00 1.3349999400000000e+01
0.0000000000000000e+00 1.3349999400000000e+01
0.0000000000000000e+00 1.3349999400000000e+01
ITEM: ATOMS id element xu yu zu
1 Ar 0.0222026 0.0874546 0.107858
2 Ar 0.024192 0.143261 4.54591
3 Ar 0.0181454 -0.0606515 8.85715
4 Ar -0.133503 4.19128 0.0314175
5 Ar 0.0490936 4.55709 4.52068
6 Ar -0.00122885 4.43849 8.86191
7 Ar 0.0870408 8.95643 0.100516
8 Ar 0.133532 9.09034 4.43473
9 Ar -0.0305702 8.85136 8.92982
10 Ar 4.30695 0.0494455 -0.0505819
11 Ar 4.41931 -0.00725132 4.45642
12 Ar 4.6002 0.162999 8.75595
13 Ar 4.27509 4.43155 0.121312
14 Ar 4.45246 4.46082 4.27885
15 Ar 4.45766 4.34208 8.83056
16 Ar 4.4033 8.92031 -0.0316735
17 Ar 4.42093 8.85238 4.37864
18 Ar 4.59646 8.78852 8.99562
19 Ar 8.933 -0.105874 0.068246
20 Ar 8.87358 -0.0573826 4.47497
21 Ar 8.84597 0.0909013 9.0678
22 Ar 8.99861 4.35948 0.049504
23 Ar 8.88708 4.66118 4.36171
24 Ar 9.01982 4.3425 8.98391
25 Ar 8.83836 9.02357 -0.184266
26 Ar 8.98032 8.82202 4.37516
27 Ar 9.00511 8.81942 8.93065
28 Ar -0.0459845 2.10404 2.25848
29 Ar 0.0577868 2.33419 6.61877
30 Ar -0.0670731 2.3115 11.0138
31 Ar -0.0822953 6.78986 2.22933
32 Ar 0.0754232 6.84552 6.62188
33 Ar -0.00749876 6.57612 11.183
34 Ar 0.0796369 11.3483 2.24427
35 Ar 0.0163433 11.1618 6.8248
36 Ar 0.105011 11.0952 11.1487
37 Ar 4.4827 2.12381 2.21524
38 Ar 4.27973 2.29971 6.61922
39 Ar 4.56104 2.26115 11.2492
40 Ar 4.52416 6.77028 2.18738
41 Ar 4.478 6.52392 6.67584
42 Ar 4.29378 6.57137 11.2282
43 Ar 4.3982 11.206 2.24048
44 Ar 4.41961 10.9919 6.67751
45 Ar 4.28243 11.1244 11.2268
46 Ar 8.80769 2.1743 2.26386
47 Ar 8.87709 1.99289 6.78827
48 Ar 8.94268 2.1219 11.1586
49 Ar 8.89408 6.77287 2.09273
50 Ar 8.86471 6.75316 6.69697
51 Ar 8.84667 6.65492 11.1422
52 Ar 9.01405 10.9953 2.01834
53 Ar 8.81062 11.0868 6.63152
54 Ar 9.12023 11.1983 11.0018
55 Ar 2.21961 0.101258 2.46614
56 Ar 2.25483 0.0462414 6.75106
57 Ar 2.12433 -0.00826078 11.0455
58 Ar 2.33587 4.36729 2.15085
59 Ar 2.12129 4.46966 6.74917
60 Ar 2.35671 4.45245 11.2067
61 Ar 2.17915 8.8348 2.18068
62 Ar 2.37764 8.86868 6.65977
63 Ar 2.12585 8.99867 11.0077
64 Ar 6.72773 -0.209964 1.95867
65 Ar 6.64353 -0.0934154 6.5256
66 Ar 6.6839 -0.046073 11.1284
67 Ar 6.62637 4.56954 2.19459
68 Ar 6.82043 4.30471 6.69199
69 Ar 6.6701 4.5329 11.2277
70 Ar 6.64743 8.98549 2.1334
71 Ar 6.70553 8.92657 6.82093
72 Ar 6.72814 8.87632 11.1987
73 Ar 11.1091 -0.115252 2.23891
74 Ar 11.1237 -0.127981 6.61752
75 Ar 11.3058 -0.140928 11.2107
76 Ar 11.1048 4.61911 2.44207
77 Ar 11.0634 4.47751 6.71329
78 Ar 11.0381 4.53403 11.0496
79 Ar 11.1033 8.97835 2.17755
80 Ar 11.1007 9.06907 6.72754
81 Ar 11.0257 8.90755 10.9988
82 Ar 2.2111 1.9398 0.203526
83 Ar 2.25081 2.33108 4.34639
84 Ar 2.16603 2.28671 8.88541
85 Ar 2.16486 6.76141 0.116689
86 Ar 2.08823 6.50247 4.31369
87 Ar 2.21768 6.62777 8.89801
88 Ar 2.1896 11.1352 0.0858039
89 Ar 2.25528 11.0962 4.54824
90 Ar 2.26493 11.1142 8.89471
91 Ar 6.6754 2.30698 0.00838002
92 Ar 6.60521 2.36982 4.24101
93 Ar 6.81084 2.12044 8.89681
94 Ar 6.68737 6.74572 0.0747809
95 Ar 6.60501 6.88866 4.42345
96 Ar 6.77497 6.58264 8.97914
97 Ar 6.6381 11.193 -0.0216668
98 Ar 6.54275 11.0358 4.36873
99 Ar 6.64688 11.1531 8.90542
100 Ar 11.0626 2.18806 0.0168721
101 Ar 10.9845 2.24309 4.30337
102 Ar 11.0797 2.18629 8.6742
103 Ar 11.0562 6.77492 0.0108369
104 Ar 11.1955 6.7354 4.49069
105 Ar 11.2389 6.58504 9.00544
106 Ar 11.1984 11.0971 0.0660979
107 Ar 11.1685 10.9601 4.41479
108 Ar 11.1354 11.209 8.81568
ITEM: TIMESTEP
70010
ITEM: NUMBER OF ATOMS
108
ITEM: BOX BOUNDS pp pp pp
0.0000000000000000e+00 1.3349999400000000e+01
0.0000000000000000e+00 1.3349999400000000e+01
0.0000000000000000e+00 1.3349999400000000e+01
ITEM: ATOMS id element xu yu zu
1 Ar 0.0322227 0.0750423 0.088774
2 Ar 0.0187659 0.140386 4.55434
3 Ar 0.0148739 -0.0691025 8.86534
4 Ar -0.146387 4.18319 0.0300783
5 Ar 0.0573367 4.56773 4.52868
6 Ar -0.00989566 4.43418 8.86628
7 Ar 0.0767916 8.9626 0.0953887
8 Ar 0.144485 9.09774 4.42618
9 Ar -0.0542375 8.85323 8.91571
10 Ar 4.286 0.0548592 -0.0496778
11 Ar 4.41918 -0.0184609 4.46082
12 Ar 4.56417 0.182289 8.77078
13 Ar 4.26722 4.41277 0.13912
14 Ar 4.4396 4.47346 4.28388
15 Ar 4.4826 4.34166 8.83169
16 Ar 4.40518 8.91315 -0.0307065
17 Ar 4.43843 8.85143 4.37593
18 Ar 4.5952 8.78008 9.01685
19 Ar 8.93809 -0.0940552 0.0944334
20 Ar 8.85368 -0.0706323 4.47756
21 Ar 8.84182 0.0868764 9.07305
22 Ar 9.00795 4.37296 0.0568203
23 Ar 8.88446 4.64941 4.353
24 Ar 9.0164 4.3508 8.98768
25 Ar 8.8308 9.01948 -0.185802
26 Ar 8.99443 8.81731 4.37345
27 Ar 8.98762 8.83878 8.92943
28 Ar -0.0211514 2.08701 2.25198
29 Ar 0.0594981 2.35946 6.6084
30 Ar -0.0591293 2.30494 11.0239
31 Ar -0.0683211 6.78763 2.231
32 Ar 0.0693645 6.86749 6.62178
33 Ar 0.00530025 6.58251 11.1983
34 Ar 0.0930483 11.3441 2.22673
35 Ar 0.00128846 11.1749 6.83045
36 Ar 0.0930767 11.1116 11.1263
37 Ar 4.49781 2.10072 2.2075
38 Ar 4.28233 2.29974 6.60595
39 Ar 4.54635 2.24509 11.2621
40 Ar 4.55343 6.75786 2.20673
41 Ar 4.4677 6.53848 6.68351
42 Ar 4.28479 6.56588 11.243
43 Ar 4.37686 11.1919 2.25092
44 Ar 4.42783 10.9908 6.6898
45 Ar 4.28547 11.1317 11.2331
46 Ar 8.81384 2.18501 2.25598
47 Ar 8.86448 1.99655 6.78322
48 Ar 8.95801 2.10192 11.137
49 Ar 8.89148 6.77885 2.08915
50 Ar 8.86882 6.75056 6.69413
51 Ar 8.86931 6.6662 11.1416
52 Ar 9.00767 10.9922 2.03901
53 Ar 8.79424 11.0789 6.6097
54 Ar 9.10866 11.2106 11.0011
55 Ar 2.22735 0.088412 2.48042
56 Ar 2.28659 0.0318347 6.73857
57 Ar 2.102 -0.00225102 11.0517
58 Ar 2.34716 4.35951 2.13207
59 Ar 2.13634 4.46646 6.73722
60 Ar 2.34846 4.44763 11.2076
61 Ar 2.17162 8.83605 2.18272
62 Ar 2.39615 8.87984 6.65303
63 Ar 2.13637 8.99378 10.9995
64 Ar 6.71319 -0.214479 1.96284
65 Ar 6.63956 -0.100054 6.52297
66 Ar 6.67839 -0.0486294 11.1369
67 Ar 6.64656 4.56098 2.18904
68 Ar 6.83129 4.29454 6.68907
69 Ar 6.68616 4.52509 11.2284
70 Ar 6.63172 8.99633 2.1452
71 Ar 6.69526 8.917 6.79712
72 Ar 6.74376 8.86314 11.2032
73 Ar 11.1075 -0.092172 2.24686
74 Ar 11.1226 -0.119899 6.61832
75 Ar 11.2797 -0.138153 11.2119
76 Ar 11.1163 4.62569 2.42795
77 Ar 11.0473 4.49072 6.68611
78 Ar 11.038 4.53375 11.0499
79 Ar 11.1086 8.97085 2.18703
80 Ar 11.0989 9.05369 6.7074
81 Ar 11.0504 8.902 10.9778
82 Ar 2.17286 1.95301 0.185685
83 Ar 2.24505 2.33594 4.34022
84 Ar 2.16312 2.28108 8.8897
85 Ar 2.18402 6.75772 0.116686
86 Ar 2.07788 6.50258 4.2925
87 Ar 2.20881 6.60899 8.89825
88 Ar 2.17341 11.1522 0.0848346
89 Ar 2.26115 11.098 4.56028
90 Ar 2.26421 11.1145 8.90522
91 Ar 6.68929 2.31297 8.4446e-05
92 Ar 6.62431 2.37127 4.26634
93 Ar 6.81727 2.12699 8.90001
94 Ar 6.69391 6.7455 0.0747126
95 Ar 6.61919 6.90006 4.43341
96 Ar 6.77779 6.58248 8.98931
97 Ar 6.62387 11.2093 -0.039368
98 Ar 6.53162 11.0489 4.377
99 Ar 6.65605 11.1519 8.92064
100 Ar 11.0552 2.18822 0.0222916
101 Ar 10.9922 2.2392 4.3192
102 Ar 11.0972 2.20514 8.67289
103 Ar 11.0502 6.75414 -0.0019121
104 Ar 11.1953 6.73654 4.50228
105 Ar 11.2237 6.58329 9.00937
106 Ar 11.2024 11.1034 0.0533675
107 Ar 11.17 10.9499 4.4086
108 Ar 11.1339 11.2048 8.81633
ITEM: TIMESTEP
70020
ITEM: NUMBER OF ATOMS
108
ITEM: BOX BOUNDS pp pp pp
0.0000000000000000e+00 1.3349999400000000e+01
0.0000000000000000e+00 1.3349999400000000e+01
0.0000000000000000e+00 1.3349999400000000e+01
ITEM: ATOMS id element xu yu zu
1 Ar 0.0405055 0.0607963 0.0674024
2 Ar 0.0125267 0.135221 4.56334
3 Ar 0.010995 -0.0746104 8.87379
4 Ar -0.157224 4.17906 0.0293629
5 Ar 0.0624243 4.57509 4.53496
6 Ar -0.0188642 4.43081 8.87115
7 Ar 0.0642567 8.96844 0.087678
8 Ar 0.153887 9.10254 4.41818
9 Ar -0.0769491 8.85571 8.90122
10 Ar 4.26783 0.057887 -0.0482987
11 Ar 4.4206 -0.0288949 4.46598
12 Ar 4.5266 0.199384 8.7879
13 Ar 4.26388 4.39413 0.154358
14 Ar 4.42743 4.48703 4.29161
15 Ar 4.50844 4.34187 8.83464
16 Ar 4.40696 8.90634 -0.029893
17 Ar 4.45408 8.8508 4.37411
18 Ar 4.59219 8.77197 9.03792
19 Ar 8.94397 -0.0807541 0.117347
20 Ar 8.83373 -0.0842826 4.47768
21 Ar 8.84026 0.0789487 9.07484
22 Ar 9.01631 4.38776 0.0639276
23 Ar 8.88054 4.63641 4.34605
24 Ar 9.01002 4.36014 8.98978
25 Ar 8.82545 9.01461 -0.185503
26 Ar 9.00633 8.81412 4.37254
27 Ar 8.96816 8.85913 8.92728
28 Ar 0.00185223 2.07347 2.24703
29 Ar 0.0593853 2.38231 6.59821
30 Ar -0.0514588 2.29711 11.0346
31 Ar -0.0547698 6.78338 2.23175
32 Ar 0.0622074 6.8883 6.62246
33 Ar 0.0189467 6.58965 11.2145
34 Ar 0.105732 11.3373 2.21103
35 Ar -0.0118808 11.1864 6.83278
36 Ar 0.0789227 11.1274 11.1043
37 Ar 4.51384 2.07811 2.19937
38 Ar 4.28807 2.29993 6.5917
39 Ar 4.53006 2.229 11.2724
40 Ar 4.58017 6.74493 2.22571
41 Ar 4.45804 6.55366 6.69057
42 Ar 4.27891 6.56277 11.2567
43 Ar 4.35469 11.1768 2.26013
44 Ar 4.43746 10.9918 6.70298
45 Ar 4.29087 11.1397 11.2371
46 Ar 8.82062 2.19584 2.24734
47 Ar 8.85227 2.00237 6.77377
48 Ar 8.97367 2.08387 11.1173
49 Ar 8.88879 6.78493 2.08693
50 Ar 8.87371 6.74679 6.69149
51 Ar 8.89263 6.67708 11.1418
52 Ar 8.99857 10.9904 2.06357
53 Ar 8.77882 11.0715 6.58873
54 Ar 9.09362 11.2217 11.0023
55 Ar 2.23545 0.0726791 2.49259
56 Ar 2.31726 0.0170153 6.72513
57 Ar 2.08161 0.00531277 11.0581
58 Ar 2.35309 4.3528 2.11463
59 Ar 2.15329 4.46463 6.72385
60 Ar 2.33652 4.44037 11.2082
61 Ar 2.1662 8.83964 2.18701
62 Ar 2.41272 8.88929 6.64757
63 Ar 2.14821 8.98557 10.9935
64 Ar 6.69757 -0.214885 1.97277
65 Ar 6.63496 -0.105163 6.52167
66 Ar 6.67174 -0.050927 11.1466
67 Ar 6.6677 4.55193 2.18291
68 Ar 6.84096 4.28609 6.68552
69 Ar 6.70187 4.516 11.2287
70 Ar 6.61703 9.00751 2.15688
71 Ar 6.68441 8.90647 6.77205
72 Ar 6.75692 8.85131 11.2054
73 Ar 11.1054 -0.0680664 2.25595
74 Ar 11.1209 -0.110346 6.61838
75 Ar 11.2533 -0.132221 11.2122
76 Ar 11.1289 4.62997 2.41034
77 Ar 11.0314 4.50401 6.65737
78 Ar 11.0399 4.53052 11.0533
79 Ar 11.1159 8.96131 2.19616
80 Ar 11.0978 9.03546 6.68718
81 Ar 11.0781 8.8966 10.9601
82 Ar 2.13493 1.97158 0.16446
83 Ar 2.23887 2.34105 4.33647
84 Ar 2.16122 2.27449 8.89535
85 Ar 2.20245 6.75184 0.114959
86 Ar 2.07198 6.50651 4.27278
87 Ar 2.20039 6.59127 8.89906
88 Ar 2.15798 11.1697 0.0833593
89 Ar 2.26689 11.1014 4.5714
90 Ar 2.26462 11.1151 8.91452
91 Ar 6.70366 2.31755 -0.00762732
92 Ar 6.64441 2.36991 4.29468
93 Ar 6.82031 2.13652 8.9041
94 Ar 6.6997 6.74403 0.0724623
95 Ar 6.63501 6.90834 4.44417
96 Ar 6.77894 6.58215 8.99809
97 Ar 6.60917 11.2222 -0.0599995
98 Ar 6.52315 11.0622 4.38557
99 Ar 6.66518 11.1505 8.93677
100 Ar 11.0479 2.1873 0.0281603
101 Ar 11.0009 2.23552 4.33778
102 Ar 11.1169 2.22255 8.67482
103 Ar 11.046 6.73306 -0.0154003
104 Ar 11.195 6.73936 4.51469
105 Ar 11.2072 6.58355 9.00979
106 Ar 11.2074 11.1092 0.0385395
107 Ar 11.171 10.9436 4.40279
108 Ar 11.1316 11.2 8.81835
ITEM: TIMESTEP
70030
ITEM: NUMBER OF ATOMS
108
ITEM: BOX BOUNDS pp pp pp
0.0000000000000000e+00 1.3349999400000000e+01
0.0000000000000000e+00 1.3349999400000000e+01
0.0000000000000000e+00 1.3349999400000000e+01
ITEM: ATOMS id element xu yu zu
1 Ar 0.0464946 0.0448964 0.0441849
2 Ar 0.00569837 0.127809 4.5728
3 Ar 0.00656782 -0.0768897 8.88214
4 Ar -0.165971 4.179 0.0292992
5 Ar 0.0642056 4.57924 4.53935
6 Ar -0.0279779 4.42854 8.87632
7 Ar 0.0498125 8.97371 0.0774382
8 Ar 0.161644 9.1048 4.41092
9 Ar -0.0980373 8.85878 8.88654
10 Ar 4.25228 0.0586168 -0.0462992
11 Ar 4.42367 -0.0382914 4.47172
12 Ar 4.48837 0.214178 8.80719
13 Ar 4.26556 4.37578 0.166367
14 Ar 4.41639 4.50112 4.30175
15 Ar 4.53475 4.34256 8.83936
16 Ar 4.40862 8.90007 -0.02917
17 Ar 4.46752 8.85051 4.37327
18 Ar 4.58766 8.76431 9.05854
19 Ar 8.95032 -0.0663914 0.136928
20 Ar 8.81415 -0.0979753 4.4752
21 Ar 8.84119 0.0673665 9.07263
22 Ar 9.02359 4.40357 0.0705362
23 Ar 8.87561 4.62246 4.3407
24 Ar 9.00096 4.37032 8.99017
25 Ar 8.82267 9.00939 -0.183145
26 Ar 9.01576 8.81245 4.37237
27 Ar 8.9471 8.88025 8.92415
28 Ar 0.0225701 2.06338 2.24375
29 Ar 0.0575941 2.40234 6.58838
30 Ar -0.0443709 2.28814 11.0459
31 Ar -0.0419955 6.77721 2.23128
32 Ar 0.0543726 6.90757 6.62384
33 Ar 0.0331784 6.59742 11.2315
34 Ar 0.117136 11.3282 2.19756
35 Ar -0.0229452 11.1959 6.83169
36 Ar 0.0628714 11.1422 11.0829
37 Ar 4.53058 2.05636 2.19126
38 Ar 4.29691 2.30028 6.57673
39 Ar 4.5124 2.21328 11.2801
40 Ar 4.60411 6.73163 2.24392
41 Ar 4.44922 6.56925 6.69701
42 Ar 4.27627 6.56167 11.2692
43 Ar 4.33203 11.1609 2.26786
44 Ar 4.44853 10.9948 6.71717
45 Ar 4.29828 11.1481 11.2388
46 Ar 8.82795 2.20664 2.23838
47 Ar 8.84095 2.01007 6.76042
48 Ar 8.98952 2.06816 11.0998
49 Ar 8.88613 6.79111 2.08618
50 Ar 8.87911 6.74199 6.68924
51 Ar 8.91623 6.68744 11.1426
52 Ar 8.9871 10.9899 2.09132
53 Ar 8.76469 11.0645 6.56896
54 Ar 9.07547 11.2311 11.0058
55 Ar 2.24378 0.054622 2.5023
56 Ar 2.34611 0.00207078 6.71102
57 Ar 2.06357 0.0141877 11.0647
58 Ar 2.35332 4.34715 2.09921
59 Ar 2.17189 4.46429 6.70947
60 Ar 2.32124 4.43079 11.2084
61 Ar 2.16309 8.84542 2.19313
62 Ar 2.42701 8.89687 6.64357
63 Ar 2.1608 8.97442 10.9896
64 Ar 6.681 -0.21148 1.98805
65 Ar 6.62957 -0.108574 6.52227
66 Ar 6.66405 -0.0525647 11.1572
67 Ar 6.68935 4.54234 2.1765
68 Ar 6.84922 4.27978 6.68149
69 Ar 6.71708 4.50578 11.2287
70 Ar 6.60366 9.01901 2.16809
71 Ar 6.67303 8.89521 6.7464
72 Ar 6.76732 8.84092 11.2052
73 Ar 11.1032 -0.0435389 2.26608
74 Ar 11.1184 -0.0994361 6.61784
75 Ar 11.2269 -0.123106 11.2113
76 Ar 11.1424 4.63191 2.38992
77 Ar 11.0161 4.51707 6.62768
78 Ar 11.0437 4.5243 11.0597
79 Ar 11.125 8.94989 2.20447
80 Ar 11.097 9.01492 6.66732
81 Ar 11.1081 8.89168 10.946
82 Ar 2.09822 1.99501 0.14031
83 Ar 2.23251 2.34625 4.33503
84 Ar 2.16028 2.26726 8.90196
85 Ar 2.21987 6.74405 0.111878
86 Ar 2.07077 6.5143 4.25485
87 Ar 2.19246 6.57479 8.90038
88 Ar 2.1437 11.1873 0.0810258
89 Ar 2.27237 11.1062 4.58161
90 Ar 2.2661 11.1158 8.92245
91 Ar 6.71845 2.32058 -0.0148304
92 Ar 6.66499 2.36583 4.32531
93 Ar 6.81986 2.14853 8.90913
94 Ar 6.70463 6.74131 0.0680928
95 Ar 6.65241 6.91314 4.45558
96 Ar 6.77852 6.58173 9.00539
97 Ar 6.59434 11.2316 -0.0828115
98 Ar 6.51729 11.0754 4.39419
99 Ar 6.67393 11.1489 8.95343
100 Ar 11.0409 2.18532 0.0343677
101 Ar 11.0105 2.23222 4.35867
102 Ar 11.1384 2.2384 8.67959
103 Ar 11.0438 6.7122 -0.0292591
104 Ar 11.1947 6.74359 4.52732
105 Ar 11.1898 6.58562 9.00667
106 Ar 11.2129 11.1144 0.022236
107 Ar 11.1717 10.9415 4.3974
108 Ar 11.1282 11.1948 8.82147
ITEM: TIMESTEP
70040
ITEM: NUMBER OF ATOMS
108
ITEM: BOX BOUNDS pp pp pp
0.0000000000000000e+00 1.3349999400000000e+01
0.0000000000000000e+00 1.3349999400000000e+01
0.0000000000000000e+00 1.3349999400000000e+01
ITEM: ATOMS id element xu yu zu
1 Ar 0.0497378 0.0276385 0.0196707
2 Ar -0.00146515 0.118242 4.58255
3 Ar 0.00164491 -0.0757757 8.88999
4 Ar -0.172641 4.18307 0.0298784
5 Ar 0.0627049 4.5804 4.54169
6 Ar -0.0370595 4.42755 8.88159
7 Ar 0.0339087 8.97818 0.0648106
8 Ar 0.167678 9.10462 4.40456
9 Ar -0.116861 8.86244 8.87182
10 Ar 4.23913 0.0572007 -0.0435551
11 Ar 4.42844 -0.046419 4.47783
12 Ar 4.45034 0.226581 8.8285
13 Ar 4.27258 4.35785 0.174665
14 Ar 4.40686 4.51531 4.31399
15 Ar 4.56106 4.34366 8.84577
16 Ar 4.41011 8.89448 -0.0284719
17 Ar 4.4785 8.85055 4.3735
18 Ar 4.58185 8.75722 9.07838
19 Ar 8.95675 -0.0514615 0.153214
20 Ar 8.79532 -0.111348 4.47006
21 Ar 8.84438 0.0525397 9.06599
22 Ar 9.02966 4.42007 0.0763847
23 Ar 8.87005 4.60784 4.3367
24 Ar 8.98964 4.38112 8.98888
25 Ar 8.82269 9.00418 -0.178554
26 Ar 9.02253 8.81228 4.37289
27 Ar 8.9249 8.9019 8.92006
28 Ar 0.0406347 2.05662 2.2422
29 Ar 0.054311 2.41926 6.57915
30 Ar -0.0381919 2.27819 11.0576
31 Ar -0.0302713 6.76923 2.22933
32 Ar 0.0462994 6.92489 6.6258
33 Ar 0.0477198 6.60569 11.2486
34 Ar 0.126732 11.317 2.18666
35 Ar -0.0317738 11.2033 6.82724
36 Ar 0.0452971 11.1554 11.0622
37 Ar 4.54775 2.03591 2.18358
38 Ar 4.30875 2.30078 6.56137
39 Ar 4.49364 2.19832 11.2852
40 Ar 4.62506 6.7181 2.26103
41 Ar 4.44141 6.58502 6.70283
42 Ar 4.27695 6.56215 11.2803
43 Ar 4.30928 11.1443 2.27391
44 Ar 4.46102 10.9999 6.73245
45 Ar 4.30729 11.1569 11.2382
46 Ar 8.83576 2.2173 2.2296
47 Ar 8.83095 2.01934 6.74375
48 Ar 9.00539 2.05516 11.085
49 Ar 8.88361 6.79737 2.08698
50 Ar 8.88477 6.73636 6.68755
51 Ar 8.93969 6.69718 11.1438
52 Ar 8.97369 10.9907 2.1215
53 Ar 8.75214 11.0578 6.55069
54 Ar 9.05459 11.2385 11.0118
55 Ar 2.25214 0.0348949 2.50931
56 Ar 2.37248 -0.0126855 6.69655
57 Ar 2.04823 0.0240622 11.0713
58 Ar 2.34776 4.34255 2.08637
59 Ar 2.19189 4.46548 6.69448
60 Ar 2.30311 4.41913 11.2084
61 Ar 2.16238 8.85318 2.20058
62 Ar 2.43877 8.90248 6.64117
63 Ar 2.17362 8.96077 10.9879
64 Ar 6.66371 -0.204743 2.00807
65 Ar 6.62333 -0.11014 6.52531
66 Ar 6.65549 -0.053098 11.1684
67 Ar 6.71106 4.53216 2.17009
68 Ar 6.85587 4.27605 6.6771
69 Ar 6.73169 4.49461 11.2284
70 Ar 6.59184 9.03078 2.17852
71 Ar 6.66119 8.88345 6.72083
72 Ar 6.77476 8.83202 11.2027
73 Ar 11.101 -0.0191657 2.27714
74 Ar 11.1149 -0.0873172 6.61688
75 Ar 11.2008 -0.110903 11.2094
76 Ar 11.1565 4.63153 2.36742
77 Ar 11.0016 4.52956 6.5977
78 Ar 11.0494 4.51515 11.0687
79 Ar 11.1359 8.93682 2.21158
80 Ar 11.0965 8.99269 6.64826
81 Ar 11.1395 8.88747 10.9359
82 Ar 2.06358 2.02262 0.11369
83 Ar 2.22619 2.35133 4.33569
84 Ar 2.16017 2.25975 8.90909
85 Ar 2.23606 6.73464 0.107857
86 Ar 2.07427 6.52581 4.23902
87 Ar 2.18504 6.55968 8.90218
88 Ar 2.13096 11.2043 0.0774727
89 Ar 2.27748 11.1122 4.5909
90 Ar 2.26855 11.1166 8.92889
91 Ar 6.73353 2.32191 -0.0216182
92 Ar 6.68558 2.35915 4.35749
93 Ar 6.81597 2.16241 8.91509
94 Ar 6.70861 6.73733 0.0617198
95 Ar 6.67124 6.91415 4.46741
96 Ar 6.77664 6.5813 9.01115
97 Ar 6.57975 11.2374 -0.106868
98 Ar 6.51388 11.0882 4.40258
99 Ar 6.68197 11.147 8.97026
100 Ar 11.0345 2.18239 0.0407981
101 Ar 11.0206 2.22944 4.3814
102 Ar 11.1609 2.25262 8.68679
103 Ar 11.0438 6.69207 -0.0431083
104 Ar 11.1944 6.7489 4.53951
105 Ar 11.1718 6.58927 9.00011
106 Ar 11.2186 11.1189 0.00508159
107 Ar 11.1722 10.9436 4.39248
108 Ar 11.1235 11.1892 8.8254
ITEM: TIMESTEP
70050
ITEM: NUMBER OF ATOMS
108
ITEM: BOX BOUNDS pp pp pp
0.0000000000000000e+00 1.3349999400000000e+01
0.0000000000000000e+00 1.3349999400000000e+01
0.0000000000000000e+00 1.3349999400000000e+01
ITEM: ATOMS id element xu yu zu
1 Ar 0.0499055 0.00943212 -0.00551078
2 Ar -0.00869001 0.106664 4.59235
3 Ar -0.00372593 -0.0712299 8.89694
4 Ar -0.177289 4.19123 0.0310546
5 Ar 0.0581173 4.57898 4.54189
6 Ar -0.0459191 4.42799 8.88678
7 Ar 0.0170463 8.98166 0.0500139
8 Ar 0.171926 9.10217 4.39926
9 Ar -0.132833 8.86669 8.85716
10 Ar 4.22813 0.0538395 -0.0399715
11 Ar 4.43491 -0.0530856 4.48404
12 Ar 4.4133 0.23651 8.8516
13 Ar 4.285 4.34047 0.179011
14 Ar 4.39915 4.52918 4.32798
15 Ar 4.58688 4.34511 8.85375
16 Ar 4.41141 8.88973 -0.0277348
17 Ar 4.48686 8.8509 4.37486
18 Ar 4.575 8.75081 9.09711
19 Ar 8.96283 -0.036507 0.166321
20 Ar 8.77759 -0.124039 4.46229
21 Ar 8.8495 0.0350129 9.05463
22 Ar 9.03444 4.43695 0.0812425
23 Ar 8.86424 4.59281 4.33382
24 Ar 8.97654 4.39228 8.98597
25 Ar 8.82563 8.99932 -0.171629
26 Ar 9.02652 8.81359 4.374
27 Ar 8.90202 8.92378 8.91502
28 Ar 0.0557811 2.05294 2.24237
29 Ar 0.0497659 2.43286 6.57076
30 Ar -0.0332657 2.26747 11.0694
31 Ar -0.0197736 6.75961 2.22568
32 Ar 0.0384322 6.93984 6.62818
33 Ar 0.0622951 6.61429 11.2657
34 Ar 0.134048 11.3041 2.17856
35 Ar -0.0383263 11.2086 6.81957
36 Ar 0.0266133 11.1666 11.0426
37 Ar 4.56503 2.01722 2.17673
38 Ar 4.32344 2.30137 6.546
39 Ar 4.47407 2.18449 11.2879
40 Ar 4.64292 6.70448 2.27668
41 Ar 4.43475 6.60074 6.70808
42 Ar 4.28091 6.56367 11.2898
43 Ar 4.2869 11.1273 2.27814
44 Ar 4.47484 11.0066 6.74887
45 Ar 4.31743 11.1659 11.2353
46 Ar 8.84398 2.22772 2.22145
47 Ar 8.82263 2.02987 6.72446
48 Ar 9.021 2.04513 11.0728
49 Ar 8.88133 6.8037 2.08937
50 Ar 8.8904 6.7301 6.68662
51 Ar 8.9626 6.70625 11.1451
52 Ar 8.95874 10.9927 2.15332
53 Ar 8.74141 11.0515 6.53422
54 Ar 9.03145 11.2434 11.0205
55 Ar 2.26032 0.0142109 2.51345
56 Ar 2.39581 -0.0269119 6.68202
57 Ar 2.03592 0.034565 11.0778
58 Ar 2.33654 4.339 2.07649
59 Ar 2.21292 4.46817 6.67927
60 Ar 2.28266 4.40573 11.208
61 Ar 2.16404 8.86264 2.20877
62 Ar 2.44782 8.90617 6.64048
63 Ar 2.18616 8.94514 10.9884
64 Ar 6.64599 -0.195276 2.03207
65 Ar 6.61625 -0.109743 6.53123
66 Ar 6.64625 -0.0520644 11.1796
67 Ar 6.73236 4.52137 2.16395
68 Ar 6.86071 4.27529 6.67251
69 Ar 6.74562 4.48268 11.2279
70 Ar 6.58178 9.04267 2.1879
71 Ar 6.64902 8.87148 6.69598
72 Ar 6.77917 8.82464 11.1981
73 Ar 11.0992 0.00452101 2.28899
74 Ar 11.1102 -0.0741793 6.6157
75 Ar 11.1756 -0.0958386 11.2062
76 Ar 11.171 4.62887 2.34361
77 Ar 10.9879 4.54112 6.56815
78 Ar 11.0568 4.50323 11.08
79 Ar 11.1482 8.92243 2.21722
80 Ar 11.0961 8.96948 6.63039
81 Ar 11.1713 8.88414 10.9298
82 Ar 2.03174 2.05366 0.0850703
83 Ar 2.22016 2.35606 4.33823
84 Ar 2.16072 2.25237 8.91625
85 Ar 2.25084 6.72394 0.103325
86 Ar 2.08232 6.54075 4.22556
87 Ar 2.17819 6.54603 8.9044
88 Ar 2.12007 11.2201 0.0723601
89 Ar 2.28209 11.1191 4.59932
90 Ar 2.27179 11.1176 8.93382
91 Ar 6.7488 2.32145 -0.0280885
92 Ar 6.70572 2.35001 4.39037
93 Ar 6.80887 2.1775 8.92196
94 Ar 6.71157 6.73214 0.0535069
95 Ar 6.69131 6.91116 4.47935
96 Ar 6.77344 6.58099 9.01533
97 Ar 6.5658 11.2399 -0.131112
98 Ar 6.51272 11.1003 4.41052
99 Ar 6.68896 11.1449 8.98689
100 Ar 11.029 2.17868 0.0473358
101 Ar 11.0311 2.22731 4.40546
102 Ar 11.1837 2.26519 8.69601
103 Ar 11.0462 6.67316 -0.0565669
104 Ar 11.1942 6.75495 4.55055
105 Ar 11.1535 6.59421 8.99028
106 Ar 11.2238 11.1227 -0.0123303
107 Ar 11.1727 10.95 4.38808
108 Ar 11.1173 11.1832 8.82981
ITEM: TIMESTEP
70060
ITEM: NUMBER OF ATOMS
108
ITEM: BOX BOUNDS pp pp pp
0.0000000000000000e+00 1.3349999400000000e+01
0.0000000000000000e+00 1.3349999400000000e+01
0.0000000000000000e+00 1.3349999400000000e+01
ITEM: ATOMS id element xu yu zu
1 Ar 0.0467973 -0.00922091 -0.0306841
2 Ar -0.0156951 0.0932672 4.60197
3 Ar -0.00949592 -0.06334 8.90259
4 Ar -0.180006 4.20336 0.0327446
5 Ar 0.0507834 4.57546 4.53987
6 Ar -0.0543638 4.42999 8.89175
7 Ar -0.000243664 8.98403 0.0333353
8 Ar 0.174349 9.0976 4.39515
9 Ar -0.145444 8.87154 8.84269
10 Ar 4.21906 0.048772 -0.0354882
11 Ar 4.44303 -0.0581449 4.49004
12 Ar 4.37797 0.243871 8.87622
13 Ar 4.30259 4.32376 0.179425
14 Ar 4.39353 4.54237 4.34336
15 Ar 4.61166 4.34689 8.86315
16 Ar 4.41252 8.8859 -0.026902
17 Ar 4.49254 8.8515 4.37741
18 Ar 4.56733 8.74519 9.11437
19 Ar 8.96814 -0.0220886 0.176423
20 Ar 8.7613 -0.135692 4.45205
21 Ar 8.85619 0.0154241 9.03848
22 Ar 9.03783 4.45388 0.0849127
23 Ar 8.85856 4.57763 4.3318
24 Ar 8.96219 4.40354 8.98159
25 Ar 8.83148 8.99507 -0.162356
26 Ar 9.02771 8.81632 4.37562
27 Ar 8.87898 8.94556 8.90911
28 Ar 0.0678547 2.05202 2.2442
29 Ar 0.0442304 2.44307 6.56348
30 Ar -0.0299496 2.25621 11.0811
31 Ar -0.0105722 6.74855 2.22021
32 Ar 0.0312041 6.95199 6.63085
33 Ar 0.0766376 6.62305 11.2822
34 Ar 0.138697 11.2898 2.17341
35 Ar -0.0426494 11.2119 6.80898
36 Ar 0.00726108 11.1757 11.024
37 Ar 4.58204 2.00079 2.17106
38 Ar 4.34076 2.30198 6.53101
39 Ar 4.45399 2.17208 11.2882
40 Ar 4.65771 6.69092 2.29058
41 Ar 4.42938 6.61619 6.71283
42 Ar 4.28805 6.5657 11.2975
43 Ar 4.26536 11.11 2.28047
44 Ar 4.48988 11.0148 6.76642
45 Ar 4.32819 11.1749 11.23
46 Ar 8.85253 2.23779 2.21439
47 Ar 8.81632 2.04136 6.70328
48 Ar 9.03604 2.03826 11.0632
49 Ar 8.87939 6.81003 2.09336
50 Ar 8.89571 6.72344 6.68656
51 Ar 8.98455 6.71462 11.1464
52 Ar 8.94272 10.9959 2.186
53 Ar 8.73269 11.0454 6.51983
54 Ar 9.00654 11.2458 11.032
55 Ar 2.26807 -0.00669372 2.51465
56 Ar 2.41567 -0.0402414 6.66777
57 Ar 2.02688 0.0452802 11.084
58 Ar 2.32012 4.33651 2.06972
59 Ar 2.23462 4.47229 6.6642
60 Ar 2.26048 4.39103 11.2074
61 Ar 2.16792 8.87347 2.21712
62 Ar 2.45404 8.90803 6.64154
63 Ar 2.19801 8.92806 10.991
64 Ar 6.62819 -0.183753 2.05918
65 Ar 6.60846 -0.10731 6.54041
66 Ar 6.6366 -0.0490165 11.1905
67 Ar 6.75282 4.51 2.15833
68 Ar 6.86355 4.27781 6.66788
69 Ar 6.75882 4.47019 11.2272
70 Ar 6.5736 9.05452 2.19599
71 Ar 6.63667 8.85958 6.67247
72 Ar 6.78062 8.81873 11.1916
73 Ar 11.098 0.0270458 2.3015
74 Ar 11.1041 -0.060252 6.61452
75 Ar 11.1513 -0.0782754 11.2019
76 Ar 11.1855 4.624 2.31925
77 Ar 10.9753 4.55138 6.53971
78 Ar 11.0657 4.48878 11.0929
79 Ar 11.1617 8.90705 2.22122
80 Ar 11.0955 8.94603 6.61408
81 Ar 11.2028 8.88178 10.9278
82 Ar 2.00328 2.0873 0.0549689
83 Ar 2.21465 2.36017 4.34242
84 Ar 2.16172 2.24553 8.92299
85 Ar 2.2641 6.71224 0.0987006
86 Ar 2.09459 6.55872 4.21476
87 Ar 2.17196 6.53389 8.90699
88 Ar 2.1113 11.2343 0.0653982
89 Ar 2.28608 11.1264 4.60691
90 Ar 2.27565 11.1185 8.93724
91 Ar 6.76412 2.31908 -0.03433
92 Ar 6.72499 2.33854 4.42312
93 Ar 6.79892 2.19308 8.92964
94 Ar 6.71349 6.72583 0.0436604
95 Ar 6.7123 6.90401 4.49106
96 Ar 6.76908 6.58091 9.01795
97 Ar 6.55286 11.2391 -0.154448
98 Ar 6.51352 11.1113 4.41781
99 Ar 6.69458 11.1427 9.00298
100 Ar 11.0246 2.17441 0.0538697
101 Ar 11.0419 2.22595 4.43035
102 Ar 11.2062 2.27609 8.70683
103 Ar 11.0511 6.65594 -0.069266
104 Ar 11.1941 6.76139 4.55972
105 Ar 11.1351 6.60016 8.97743
106 Ar 11.228 11.1259 -0.0294598
107 Ar 11.1731 10.9605 4.38424
108 Ar 11.1096 11.1769 8.8344
ITEM: TIMESTEP
70070
ITEM: NUMBER OF ATOMS
108
ITEM: BOX BOUNDS pp pp pp
0.0000000000000000e+00 1.3349999400000000e+01
0.0000000000000000e+00 1.3349999400000000e+01
0.0000000000000000e+00 1.3349999400000000e+01
ITEM: ATOMS id element xu yu zu
1 Ar 0.0403411 -0.0277623 -0.0551652
2 Ar -0.022205 0.0782919 4.61114
3 Ar -0.0156087 -0.0523153 8.90658
4 Ar -0.1809 4.21928 0.0348306
5 Ar 0.0411524 4.57042 4.53559
6 Ar -0.0622095 4.43367 8.89633
7 Ar -0.0174195 8.9852 0.0151225
8 Ar 0.17493 9.09111 4.39232
9 Ar -0.15429 8.87701 8.82849
10 Ar 4.21174 0.0422654 -0.0300822
11 Ar 4.45267 -0.0615034 4.49555
12 Ar 4.345 0.248563 8.902
13 Ar 4.32489 4.30787 0.176167
14 Ar 4.39021 4.55454 4.35974
15 Ar 4.63487 4.34902 8.8738
16 Ar 4.41341 8.88308 -0.0259293
17 Ar 4.49557 8.85229 4.38115
18 Ar 4.55904 8.74045 9.12982
19 Ar 8.97227 -0.0087552 0.18374
20 Ar 8.74672 -0.145959 4.4396
21 Ar 8.86402 -0.005543 9.01764
22 Ar 9.03978 4.47055 0.0872352
23 Ar 8.85336 4.56253 4.3304
24 Ar 8.94717 4.41463 8.97589
25 Ar 8.84009 8.99161 -0.150808
26 Ar 9.02613 8.82043 4.37767
27 Ar 8.85625 8.96687 8.90239
28 Ar 0.0768087 2.05351 2.24755
29 Ar 0.0380115 2.44985 6.55757
30 Ar -0.0286033 2.24466 11.0926
31 Ar -0.00263147 6.73629 2.21289
32 Ar 0.0250188 6.96091 6.63365
33 Ar 0.0904985 6.63179 11.2978
34 Ar 0.140398 11.2744 2.17123
35 Ar -0.0448678 11.213 6.79584
36 Ar -0.0123027 11.1824 11.0066
37 Ar 4.59835 1.98713 2.16686
38 Ar 4.36041 2.30251 6.51683
39 Ar 4.43371 2.16138 11.2865
40 Ar 4.66953 6.67756 2.30245
41 Ar 4.42541 6.63118 6.71715
42 Ar 4.2982 6.56771 11.3033
43 Ar 4.24519 11.0928 2.28085
44 Ar 4.50593 11.0242 6.78506
45 Ar 4.33907 11.1836 11.2222
46 Ar 8.86136 2.24744 2.20879
47 Ar 8.81227 2.05353 6.68102
48 Ar 9.0501 2.03464 11.0559
49 Ar 8.87787 6.8163 2.09889
50 Ar 8.90043 6.71662 6.6875
51 Ar 9.00518 6.72232 11.1474
52 Ar 8.92603 11.0003 2.21875
53 Ar 8.72612 11.0395 6.50775
54 Ar 8.9804 11.2456 11.0462
55 Ar 2.27513 -0.0270947 2.51293
56 Ar 2.43173 -0.0522902 6.65416
57 Ar 2.02125 0.055768 11.0899
58 Ar 2.29917 4.33508 2.06604
59 Ar 2.25654 4.47769 6.64963
60 Ar 2.23718 4.37556 11.2065
61 Ar 2.17379 8.88528 2.22507
62 Ar 2.45738 8.90826 6.6444
63 Ar 2.20877 8.91006 10.9957
64 Ar 6.6107 -0.170873 2.0885
65 Ar 6.60016 -0.102818 6.55312
66 Ar 6.62681 -0.0435597 11.2006
67 Ar 6.77199 4.49809 2.15345
68 Ar 6.86424 4.2839 6.66336
69 Ar 6.77125 4.45736 11.2265
70 Ar 6.56736 9.06608 2.20261
71 Ar 6.62432 8.84806 6.65089
72 Ar 6.7793 8.81422 11.1836
73 Ar 11.0974 0.0479982 2.31449
74 Ar 11.0967 -0.0458005 6.61357
75 Ar 11.1285 -0.0587053 11.1964
76 Ar 11.1997 4.61701 2.29506
77 Ar 10.9641 4.56 6.51307
78 Ar 11.076 4.47213 11.1068
79 Ar 11.1761 8.89108 2.22353
80 Ar 11.0946 8.92312 6.59965
81 Ar 11.2332 8.88038 10.9299
82 Ar 1.97862 2.12262 0.0239773
83 Ar 2.20987 2.36338 4.34803
84 Ar 2.16294 2.23968 8.92883
85 Ar 2.2758 6.6998 0.0943643
86 Ar 2.11061 6.57924 4.20679
87 Ar 2.16641 6.52329 8.90992
88 Ar 2.10482 11.2463 0.0563728
89 Ar 2.28938 11.1339 4.61372
90 Ar 2.27987 11.1195 8.93925
91 Ar 6.77935 2.31473 -0.0404094
92 Ar 6.74298 2.32489 4.45487
93 Ar 6.78659 2.20845 8.93802
94 Ar 6.71438 6.71851 0.0324227
95 Ar 6.73385 6.89263 4.50214
96 Ar 6.76372 6.58121 9.01903
97 Ar 6.5413 11.2352 -0.175818
98 Ar 6.51595 11.1211 4.42432
99 Ar 6.69851 11.1404 9.01821
100 Ar 11.0217 2.16986 0.060298
101 Ar 11.0527 2.22541 4.45551
102 Ar 11.2277 2.28533 8.71889
103 Ar 11.0586 6.64083 -0.0808623
104 Ar 11.1942 6.7679 4.56633
105 Ar 11.1171 6.60685 8.96191
106 Ar 11.231 11.1283 -0.0458337
107 Ar 11.1736 10.9749 4.381
108 Ar 11.1004 11.1704 8.83887
ITEM: TIMESTEP
70080
ITEM: NUMBER OF ATOMS
108
ITEM: BOX BOUNDS pp pp pp
0.0000000000000000e+00 1.3349999400000000e+01
0.0000000000000000e+00 1.3349999400000000e+01
0.0000000000000000e+00 1.3349999400000000e+01
ITEM: ATOMS id element xu yu zu
1 Ar 0.0305886 -0.0456239 -0.0782978
2 Ar -0.0279628 0.0620256 4.61958
3 Ar -0.0219933 -0.0384768 8.9086
4 Ar -0.180083 4.23874 0.0371634
5 Ar 0.0297403 4.56441 4.52907
6 Ar -0.0692933 4.43912 8.90041
7 Ar -0.0339443 8.98513 -0.00422197
8 Ar 0.173683 9.08287 4.39085
9 Ar -0.159093 8.8831 8.81467
10 Ar 4.20601 0.0346079 -0.0237665
11 Ar 4.46367 -0.0631238 4.50029
12 Ar 4.31496 0.250474 8.9285
13 Ar 4.35122 4.29291 0.169672
14 Ar 4.38936 4.56538 4.3767
15 Ar 4.65595 4.35152 8.88554
16 Ar 4.41409 8.88128 -0.0247907
17 Ar 4.49608 8.85319 4.38605
18 Ar 4.55028 8.73667 9.1431
19 Ar 8.97489 0.00298518 0.188521
20 Ar 8.73411 -0.154507 4.42529
21 Ar 8.87258 -0.0272062 8.9924
22 Ar 9.04026 4.48667 0.0880898
23 Ar 8.84898 4.54774 4.32939
24 Ar 8.93201 4.42529 8.96905
25 Ar 8.85123 8.98904 -0.137131
26 Ar 9.02192 8.82583 4.38006
27 Ar 8.83429 8.98735 8.89495
28 Ar 0.0826937 2.05701 2.25221
29 Ar 0.0314425 2.45327 6.55326
30 Ar -0.0295695 2.23308 11.1034
31 Ar 0.00417988 6.72308 2.20378
32 Ar 0.0202308 6.96621 6.63642
33 Ar 0.103651 6.64029 11.312
34 Ar 0.138993 11.258 2.17191
35 Ar -0.0451704 11.2122 6.78062
36 Ar -0.0316183 11.1866 10.9904
37 Ar 4.61351 1.97676 2.16437