ITEM: TIMESTEP
10000
ITEM: NUMBER OF ATOMS
108
ITEM: BOX BOUNDS pp pp pp
0.0000000000000000e+00 1.3349999400000000e+01
0.0000000000000000e+00 1.3349999400000000e+01
0.0000000000000000e+00 1.3349999400000000e+01
ITEM: ATOMS id element xu yu zu
1 Ar 0.0304591 -0.0446739 0.00119908
2 Ar 0.0890881 0.052786 4.5311
3 Ar 0.0628583 -0.0674286 8.8171
4 Ar -0.0294384 4.2427 0.0547914
5 Ar 0.0214384 4.64219 4.50807
6 Ar -0.125094 4.45277 8.73268
7 Ar 0.0801161 8.90131 -0.0507929
8 Ar 0.0961046 8.85065 4.37461
9 Ar 0.0376032 8.89478 8.85993
10 Ar 4.6024 -0.0758616 0.185742
11 Ar 4.50621 0.0596515 4.48817
12 Ar 4.39721 0.0455266 8.92135
13 Ar 4.26875 4.48548 -0.048934
14 Ar 4.35114 4.58405 4.40786
15 Ar 4.31667 4.72303 8.90682
16 Ar 4.39212 8.78718 0.00599493
17 Ar 4.6901 8.95814 4.54243
18 Ar 4.40821 8.86693 8.93872
19 Ar 8.76572 0.0717082 -0.0406067
20 Ar 8.95352 -0.0349063 4.48488
21 Ar 8.75368 0.0792893 9.041
22 Ar 8.85624 4.46201 -0.0187999
23 Ar 8.83017 4.53426 4.47709
24 Ar 8.76623 4.38941 8.83141
25 Ar 8.9588 8.78243 0.0789407
26 Ar 8.95516 8.79496 4.41186
27 Ar 8.96684 8.99336 9.05057
28 Ar 0.00694394 2.28784 2.33163
29 Ar -0.105971 2.24503 6.62931
30 Ar 0.082002 1.94691 10.8775
31 Ar 0.215303 6.67763 2.21571
32 Ar 0.0178904 6.76619 6.78588
33 Ar -0.16879 6.61761 11.2269
34 Ar 0.0481869 11.0317 2.13545
35 Ar 0.225634 11.0486 6.72214
36 Ar -0.0685481 11.1667 11.0565
37 Ar 4.47338 2.24096 2.35861
38 Ar 4.52388 2.34443 6.5583
39 Ar 4.2687 2.25383 11.0322
40 Ar 4.39378 6.46187 2.01293
41 Ar 4.33167 6.72783 6.67251
42 Ar 4.3218 6.62307 11.1315
43 Ar 4.54461 11.1504 2.11862
44 Ar 4.65445 11.1008 6.65067
45 Ar 4.41701 10.9595 11.1439
46 Ar 9.16471 2.25383 2.20616
47 Ar 8.84974 2.40816 6.66192
48 Ar 8.83461 2.30764 11.3304
49 Ar 8.97691 6.67112 2.19269
50 Ar 8.91681 6.77439 6.62905
51 Ar 8.89484 6.69466 11.1871
52 Ar 8.89938 11.0478 2.44658
53 Ar 8.7184 11.2773 6.68515
54 Ar 8.86742 11.1432 11.1408
55 Ar 2.29458 -0.0626965 2.23157
56 Ar 2.0863 0.203503 6.58353
57 Ar 2.33145 -0.137048 11.2969
58 Ar 2.14932 4.3423 2.22448
59 Ar 2.14466 4.38756 6.71157
60 Ar 2.03666 4.48427 11.0119
61 Ar 2.41395 8.83991 2.22919
62 Ar 2.32002 8.97718 6.85669
63 Ar 2.1127 8.85075 11.051
64 Ar 6.83272 0.0297431 2.09665
65 Ar 6.78379 0.225286 6.58435
66 Ar 6.62747 0.0392107 11.1508
67 Ar 6.63155 4.3712 2.20862
68 Ar 6.56018 4.61583 6.70003
69 Ar 6.62573 4.52557 11.2024
70 Ar 6.73812 8.70798 2.15784
71 Ar 6.66549 8.88728 6.73442
72 Ar 6.51416 8.80608 11.1477
73 Ar 11.1164 0.0508312 2.24025
74 Ar 11.2156 -0.20586 6.56838
75 Ar 11.0612 -0.0885848 10.9206
76 Ar 11.1124 4.5481 2.44063
77 Ar 10.9282 4.53723 6.75367
78 Ar 11.0983 4.19803 11.0934
79 Ar 11.0913 8.88268 2.34239
80 Ar 11.1718 8.95594 6.78427
81 Ar 11.2699 9.04799 11.1016
82 Ar 2.24777 2.08042 0.0732452
83 Ar 2.26212 2.30647 4.53502
84 Ar 2.23089 2.21551 8.76261
85 Ar 2.15663 6.61562 -0.0863584
86 Ar 2.22003 6.70402 4.48826
87 Ar 2.19453 6.60188 8.85342
88 Ar 2.21731 11.1341 0.00276988
89 Ar 2.39142 11.1896 4.43515
90 Ar 2.28764 11.3449 8.91162
91 Ar 6.66285 2.37489 0.0966128
92 Ar 6.74499 2.13834 4.34043
93 Ar 6.49462 2.40233 8.96883
94 Ar 6.66906 6.6367 -0.0192046
95 Ar 6.59094 6.64898 4.21686
96 Ar 6.70976 6.55036 8.84732
97 Ar 6.79391 11.0057 -0.0601145
98 Ar 6.60361 11.2059 4.32159
99 Ar 6.71787 11.0302 8.76915
100 Ar 11.2879 2.1364 0.0848398
101 Ar 11.0961 2.26063 4.4266
102 Ar 10.9167 2.13582 8.89952
103 Ar 11.2257 6.74131 -0.0916648
104 Ar 11.3051 6.83565 4.50008
105 Ar 11.0595 6.5286 8.91448
106 Ar 11.2063 10.9957 -0.00344239
107 Ar 11.2177 11.0719 4.55234
108 Ar 10.9979 11.1771 8.952
ITEM: TIMESTEP
10010
ITEM: NUMBER OF ATOMS
108
ITEM: BOX BOUNDS pp pp pp
0.0000000000000000e+00 1.3349999400000000e+01
0.0000000000000000e+00 1.3349999400000000e+01
0.0000000000000000e+00 1.3349999400000000e+01
ITEM: ATOMS id element xu yu zu
1 Ar 0.042898 -0.0485296 0.0198013
2 Ar 0.0893315 0.0612513 4.53412
3 Ar 0.0494063 -0.0691926 8.78955
4 Ar -0.0357462 4.23377 0.0516608
5 Ar 0.012329 4.63854 4.499
6 Ar -0.123784 4.43675 8.72101
7 Ar 0.0664218 8.91828 -0.0326892
8 Ar 0.102979 8.85604 4.38507
9 Ar 0.0372451 8.89572 8.88069
10 Ar 4.59353 -0.065918 0.204173
11 Ar 4.49759 0.0673531 4.48284
12 Ar 4.39071 0.0579227 8.91639
13 Ar 4.26934 4.49239 -0.0595237
14 Ar 4.36039 4.58698 4.41122
15 Ar 4.33756 4.70101 8.8995
16 Ar 4.37667 8.78964 0.0021809
17 Ar 4.69194 8.94678 4.55503
18 Ar 4.4319 8.84687 8.94819
19 Ar 8.7763 0.0725027 -0.0464232
20 Ar 8.95179 -0.0349325 4.49815
21 Ar 8.77606 0.0760119 9.05747
22 Ar 8.83401 4.47321 -0.0476252
23 Ar 8.84561 4.52376 4.48979
24 Ar 8.75434 4.39371 8.82462
25 Ar 8.95255 8.78288 0.0683782
26 Ar 8.95857 8.79685 4.42879
27 Ar 8.97862 9.0102 9.04236
28 Ar -0.0152367 2.29889 2.34136
29 Ar -0.112859 2.26109 6.6309
30 Ar 0.0822257 1.92011 10.8492
31 Ar 0.220446 6.68186 2.19604
32 Ar 0.0250196 6.78512 6.78883
33 Ar -0.184126 6.60278 11.2329
34 Ar 0.0309402 11.0274 2.13067
35 Ar 0.234389 11.0569 6.69235
36 Ar -0.0644504 11.1694 11.0697
37 Ar 4.45443 2.23084 2.35458
38 Ar 4.51707 2.34173 6.54018
39 Ar 4.27972 2.24074 11.0436
40 Ar 4.38657 6.45136 2.01662
41 Ar 4.33649 6.72736 6.68119
42 Ar 4.33709 6.61724 11.1184
43 Ar 4.53178 11.1365 2.12844
44 Ar 4.67273 11.0959 6.65126
45 Ar 4.40705 10.9598 11.1546
46 Ar 9.16721 2.24562 2.20606
47 Ar 8.84124 2.40767 6.6847
48 Ar 8.82714 2.31666 11.3324
49 Ar 8.95392 6.67695 2.19758
50 Ar 8.92468 6.78335 6.63288
51 Ar 8.90714 6.66941 11.1942
52 Ar 8.91337 11.0462 2.45481
53 Ar 8.73217 11.295 6.69524
54 Ar 8.88235 11.1417 11.1485
55 Ar 2.29054 -0.0605196 2.23104
56 Ar 2.08896 0.198258 6.58112
57 Ar 2.34292 -0.141959 11.2941
58 Ar 2.12879 4.3306 2.22252
59 Ar 2.14892 4.39536 6.70999
60 Ar 2.05363 4.50116 11.0119
61 Ar 2.42074 8.84853 2.23265
62 Ar 2.31665 8.95859 6.86315
63 Ar 2.09727 8.87515 11.0545
64 Ar 6.83204 0.0211322 2.09882
65 Ar 6.79565 0.221878 6.59788
66 Ar 6.65303 0.0449314 11.1418
67 Ar 6.63745 4.35056 2.20899
68 Ar 6.55842 4.63723 6.67748
69 Ar 6.62079 4.53545 11.2178
70 Ar 6.7484 8.71407 2.15012
71 Ar 6.65913 8.87047 6.74646
72 Ar 6.52136 8.83513 11.1403
73 Ar 11.1149 0.0751368 2.23354
74 Ar 11.2185 -0.20389 6.5673
75 Ar 11.0844 -0.0891857 10.932
76 Ar 11.1255 4.55712 2.43717
77 Ar 10.9157 4.55055 6.7292
78 Ar 11.0914 4.19894 11.0966
79 Ar 11.1114 8.87968 2.35448
80 Ar 11.1848 8.94283 6.78441
81 Ar 11.2542 9.03849 11.0755
82 Ar 2.2446 2.10068 0.0788816
83 Ar 2.25782 2.33052 4.50242
84 Ar 2.22705 2.19021 8.76557
85 Ar 2.15788 6.61495 -0.0964525
86 Ar 2.24854 6.71477 4.48984
87 Ar 2.18811 6.61991 8.87246
88 Ar 2.17099 11.1136 0.020929
89 Ar 2.36926 11.1855 4.42697
90 Ar 2.30195 11.3652 8.92174
91 Ar 6.66394 2.39585 0.0773808
92 Ar 6.74097 2.14055 4.37607
93 Ar 6.49767 2.403 8.97958
94 Ar 6.66428 6.64302 -0.00653824
95 Ar 6.58338 6.62609 4.21212
96 Ar 6.70707 6.53813 8.83553
97 Ar 6.7885 10.9801 -0.080356
98 Ar 6.60844 11.2336 4.33075
99 Ar 6.71771 11.0337 8.76778
100 Ar 11.2683 2.11462 0.0864265
101 Ar 11.088 2.24596 4.43949
102 Ar 10.9342 2.12475 8.89876
103 Ar 11.2253 6.71844 -0.0987077
104 Ar 11.2985 6.82871 4.47838
105 Ar 11.0461 6.54017 8.90529
106 Ar 11.2174 11.0068 -0.00802244
107 Ar 11.2082 11.0711 4.5448
108 Ar 11.0033 11.157 8.94719
ITEM: TIMESTEP
10020
ITEM: NUMBER OF ATOMS
108
ITEM: BOX BOUNDS pp pp pp
0.0000000000000000e+00 1.3349999400000000e+01
0.0000000000000000e+00 1.3349999400000000e+01
0.0000000000000000e+00 1.3349999400000000e+01
ITEM: ATOMS id element xu yu zu
1 Ar 0.0541522 -0.0518596 0.0384359
2 Ar 0.0878144 0.0681133 4.53319
3 Ar 0.0341374 -0.0712552 8.76124
4 Ar -0.0418962 4.22711 0.0466877
5 Ar 0.00284879 4.63277 4.49106
6 Ar -0.12217 4.41977 8.71219
7 Ar 0.0524956 8.93416 -0.0135925
8 Ar 0.111097 8.86369 4.39689
9 Ar 0.0360192 8.89741 8.90291
10 Ar 4.58375 -0.0541082 0.21832
11 Ar 4.48826 0.0741067 4.47733
12 Ar 4.38699 0.0698744 8.90979
13 Ar 4.27102 4.49556 -0.0712645
14 Ar 4.37059 4.5883 4.41515
15 Ar 4.35973 4.67378 8.8919
16 Ar 4.36185 8.7931 -0.00212857
17 Ar 4.6902 8.93429 4.56474
18 Ar 4.45598 8.82698 8.95758
19 Ar 8.79057 0.0714017 -0.0520943
20 Ar 8.95057 -0.0335309 4.5102
21 Ar 8.79757 0.0729353 9.07116
22 Ar 8.81498 4.48552 -0.0736812
23 Ar 8.86071 4.51335 4.50152
24 Ar 8.74378 4.39904 8.82107
25 Ar 8.94694 8.78547 0.055992
26 Ar 8.95978 8.80029 4.44794
27 Ar 8.98863 9.0238 9.03249
28 Ar -0.0374192 2.30767 2.35175
29 Ar -0.121225 2.27785 6.63286
30 Ar 0.0817645 1.89692 10.8247
31 Ar 0.222659 6.68635 2.1754
32 Ar 0.031891 6.80315 6.78987
33 Ar -0.196937 6.58747 11.2348
34 Ar 0.0134712 11.0244 2.12913
35 Ar 0.240855 11.0656 6.66148
36 Ar -0.0578782 11.1728 11.0829
37 Ar 4.43512 2.22079 2.34875
38 Ar 4.51005 2.33876 6.52405
39 Ar 4.29174 2.22847 11.0572
40 Ar 4.3791 6.44393 2.0234
41 Ar 4.34273 6.72693 6.68908
42 Ar 4.35332 6.61307 11.1057
43 Ar 4.51921 11.1204 2.13968
44 Ar 4.68754 11.0938 6.65268
45 Ar 4.39817 10.9625 11.1656
46 Ar 9.16493 2.23873 2.20571
47 Ar 8.83268 2.40407 6.7066
48 Ar 8.81973 2.32389 11.331
49 Ar 8.93137 6.68073 2.2027
50 Ar 8.93152 6.7924 6.63738
51 Ar 8.92 6.64445 11.1993
52 Ar 8.92822 11.0455 2.45907
53 Ar 8.74859 11.3096 6.70425
54 Ar 8.89682 11.1396 11.1573
55 Ar 2.28512 -0.0573616 2.23153
56 Ar 2.09625 0.190208 6.57979
57 Ar 2.35426 -0.145094 11.2902
58 Ar 2.10973 4.32033 2.22046
59 Ar 2.15406 4.40462 6.70762
60 Ar 2.07001 4.51545 11.0128
61 Ar 2.42662 8.85796 2.23718
62 Ar 2.31342 8.94035 6.86666
63 Ar 2.08283 8.8998 11.0583
64 Ar 6.83095 0.0126536 2.10373
65 Ar 6.80499 0.216716 6.6145
66 Ar 6.67608 0.0501912 11.1329
67 Ar 6.64463 4.33117 2.21014
68 Ar 6.55727 4.65648 6.65209
69 Ar 6.61496 4.54442 11.2314
70 Ar 6.75661 8.72365 2.14283
71 Ar 6.6553 8.85179 6.75773
72 Ar 6.53161 8.8633 11.132
73 Ar 11.1148 0.0950262 2.2274
74 Ar 11.2202 -0.198837 6.56909
75 Ar 11.1081 -0.0876463 10.9483
76 Ar 11.1394 4.56666 2.43048
77 Ar 10.9065 4.56276 6.70228
78 Ar 11.0859 4.20195 11.1002
79 Ar 11.1333 8.87686 2.36349
80 Ar 11.1966 8.93039 6.78385
81 Ar 11.2365 9.02585 11.0497
82 Ar 2.24141 2.12194 0.0832611
83 Ar 2.25242 2.35398 4.46844
84 Ar 2.22362 2.1661 8.76973
85 Ar 2.15806 6.61475 -0.106365
86 Ar 2.27787 6.72639 4.4915
87 Ar 2.17949 6.63981 8.89263
88 Ar 2.12639 11.0916 0.0390707
89 Ar 2.34658 11.1798 4.41936
90 Ar 2.31652 11.3819 8.93114
91 Ar 6.66279 2.41416 0.0569197
92 Ar 6.73779 2.14547 4.41101
93 Ar 6.50148 2.40231 8.98958
94 Ar 6.65912 6.64922 0.00609716
95 Ar 6.57683 6.60324 4.21056
96 Ar 6.70454 6.53028 8.82629
97 Ar 6.78203 10.9552 -0.0988362
98 Ar 6.61498 11.2605 4.34102
99 Ar 6.71597 11.0395 8.7711
100 Ar 11.2472 2.09326 0.0849552
101 Ar 11.0806 2.23141 4.45508
102 Ar 10.9536 2.11427 8.89631
103 Ar 11.2229 6.69402 -0.10194
104 Ar 11.2899 6.81979 4.4577
105 Ar 11.0325 6.55432 8.8979
106 Ar 11.2256 11.0205 -0.0113814
107 Ar 11.1991 11.0697 4.53566
108 Ar 11.0105 11.137 8.93899
ITEM: TIMESTEP
10030
ITEM: NUMBER OF ATOMS
108
ITEM: BOX BOUNDS pp pp pp
0.0000000000000000e+00 1.3349999400000000e+01
0.0000000000000000e+00 1.3349999400000000e+01
0.0000000000000000e+00 1.3349999400000000e+01
ITEM: ATOMS id element xu yu zu
1 Ar 0.0641862 -0.0542049 0.0568409
2 Ar 0.0845945 0.0734843 4.52838
3 Ar 0.0172646 -0.0740474 8.73235
4 Ar -0.0480017 4.22246 0.0397536
5 Ar -0.00666064 4.6254 4.48452
6 Ar -0.12043 4.40245 8.70638
7 Ar 0.0380863 8.94807 0.00588842
8 Ar 0.120305 8.87311 4.40981
9 Ar 0.0339583 8.90008 8.926
10 Ar 4.57327 -0.0409079 0.228054
11 Ar 4.47826 0.079679 4.47174
12 Ar 4.38646 0.0813087 8.90158
13 Ar 4.27372 4.49513 -0.0837678
14 Ar 4.38141 4.58777 4.4194
15 Ar 4.38236 4.6419 8.88405
16 Ar 4.34787 8.79733 -0.00699838
17 Ar 4.68526 8.92106 4.57141
18 Ar 4.47989 8.80771 8.96675
19 Ar 8.80798 0.0683136 -0.057399
20 Ar 8.9499 -0.0305959 4.52076
21 Ar 8.81829 0.0700207 9.08196
22 Ar 8.79955 4.49871 -0.0961197
23 Ar 8.87522 4.50313 4.51185
24 Ar 8.73491 4.40529 8.82074
25 Ar 8.94248 8.78996 0.0419814
26 Ar 8.95871 8.80532 4.46893
27 Ar 8.99631 9.03387 9.02095
28 Ar -0.0595708 2.31403 2.36251
29 Ar -0.130639 2.29493 6.63487
30 Ar 0.080786 1.87771 10.8044
31 Ar 0.22216 6.69113 2.15432
32 Ar 0.0384246 6.81976 6.78893
33 Ar -0.206974 6.57197 11.2327
34 Ar -0.00420814 11.023 2.13139
35 Ar 0.245076 11.0741 6.63022
36 Ar -0.0491293 11.1768 11.0957
37 Ar 4.41613 2.21118 2.3412
38 Ar 4.50278 2.3356 6.51025
39 Ar 4.30456 2.21711 11.0729
40 Ar 4.37138 6.43956 2.03302
41 Ar 4.35013 6.72642 6.69637
42 Ar 4.37033 6.6108 11.0936
43 Ar 4.50717 11.1025 2.15209
44 Ar 4.69853 11.0945 6.65485
45 Ar 4.39041 10.9676 11.1767
46 Ar 9.15771 2.23358 2.20524
47 Ar 8.82428 2.39746 6.72755
48 Ar 8.81263 2.32922 11.3261
49 Ar 8.90975 6.68237 2.20799
50 Ar 8.93716 6.80143 6.64245
51 Ar 8.93305 6.62042 11.2022
52 Ar 8.9437 11.0457 2.45928
53 Ar 8.76737 11.3209 6.71224
54 Ar 8.91086 11.1369 11.167
55 Ar 2.27824 -0.0533382 2.23305
56 Ar 2.10801 0.179817 6.57909
57 Ar 2.36521 -0.146403 11.2858
58 Ar 2.09251 4.31209 2.21811
59 Ar 2.16003 4.4152 6.70463
60 Ar 2.08559 4.52672 11.0143
61 Ar 2.43137 8.86784 2.2428
62 Ar 2.31049 8.92306 6.86754
63 Ar 2.06969 8.92429 11.0626
64 Ar 6.82958 0.00456385 2.111
65 Ar 6.81151 0.209851 6.63422
66 Ar 6.6962 0.0547548 11.1244
67 Ar 6.65296 4.31306 2.21216
68 Ar 6.5569 4.67311 6.62424
69 Ar 6.60819 4.55249 11.2429
70 Ar 6.76251 8.73672 2.13649
71 Ar 6.65419 8.83168 6.76808
72 Ar 6.54497 8.88985 11.1228
73 Ar 11.1163 0.109912 2.2222
74 Ar 11.2205 -0.190888 6.57357
75 Ar 11.1318 -0.0843121 10.969
76 Ar 11.1536 4.57642 2.42048
77 Ar 10.9008 4.57372 6.67365
78 Ar 11.082 4.20674 11.104
79 Ar 11.1564 8.8741 2.36912
80 Ar 11.2072 8.91888 6.7824
81 Ar 11.2172 9.01024 11.0252
82 Ar 2.23806 2.1438 0.0861253
83 Ar 2.24581 2.37627 4.43411
84 Ar 2.22072 2.1437 8.77495
85 Ar 2.15719 6.61518 -0.116106
86 Ar 2.30731 6.73863 4.493
87 Ar 2.16922 6.66085 8.91374
88 Ar 2.08451 11.0689 0.0568116
89 Ar 2.32389 11.1724 4.41235
90 Ar 2.3309 11.3947 8.93934
91 Ar 6.65927 2.42913 0.035666
92 Ar 6.7354 2.15299 4.44458
93 Ar 6.50604 2.40028 8.99861
94 Ar 6.65347 6.65542 0.0184336
95 Ar 6.57154 6.58106 4.21186
96 Ar 6.70234 6.52689 8.81995
97 Ar 6.77445 10.9318 -0.115059
98 Ar 6.62303 11.2861 4.35227
99 Ar 6.71281 11.0478 8.77901
100 Ar 11.2251 2.07291 0.0800894
101 Ar 11.0737 2.21726 4.47313
102 Ar 10.9746 2.10476 8.89223
103 Ar 11.2181 6.66852 -0.101072
104 Ar 11.2796 6.80915 4.43839
105 Ar 11.0191 6.57048 8.89227
106 Ar 11.2305 11.0365 -0.0136281
107 Ar 11.1905 11.0679 4.52525
108 Ar 11.0199 11.1179 8.9277
ITEM: TIMESTEP
10040
ITEM: NUMBER OF ATOMS
108
ITEM: BOX BOUNDS pp pp pp
0.0000000000000000e+00 1.3349999400000000e+01
0.0000000000000000e+00 1.3349999400000000e+01
0.0000000000000000e+00 1.3349999400000000e+01
ITEM: ATOMS id element xu yu zu
1 Ar 0.0729931 -0.0551491 0.0747622
2 Ar 0.0797971 0.0774984 4.51992
3 Ar -0.000891122 -0.0779041 8.70315
4 Ar -0.0541567 4.21956 0.0308167
5 Ar -0.0158855 4.61693 4.47959
6 Ar -0.118697 4.38541 8.70369
7 Ar 0.0229053 8.95919 0.0251406
8 Ar 0.130385 8.88375 4.42354
9 Ar 0.0311014 8.90392 8.94935
10 Ar 4.56229 -0.02684 0.233398
11 Ar 4.46766 0.0838876 4.46615
12 Ar 4.38943 0.0921611 8.89187
13 Ar 4.27733 4.49137 -0.0965684
14 Ar 4.39248 4.58516 4.42373
15 Ar 4.40472 4.60603 8.87604
16 Ar 4.33489 8.80211 -0.0124788
17 Ar 4.67755 8.90751 4.57504
18 Ar 4.50307 8.7895 8.97555
19 Ar 8.82794 0.0631859 -0.0621242
20 Ar 8.94979 -0.0260669 4.52963
21 Ar 8.83833 0.0672046 9.08988
22 Ar 8.78799 4.51246 -0.114211
23 Ar 8.88889 4.49314 4.52033
24 Ar 8.728 4.41236 8.82349
25 Ar 8.93956 8.79605 0.0265895
26 Ar 8.95538 8.812 4.49128
27 Ar 9.00117 9.04028 9.00777
28 Ar -0.0816629 2.3179 2.37327
29 Ar -0.1406 2.3119 6.63661
30 Ar 0.0794837 1.86274 10.789
31 Ar 0.219195 6.69618 2.13335
32 Ar 0.0445447 6.83447 6.78605
33 Ar -0.214124 6.55659 11.2265
34 Ar -0.0220702 11.0235 2.13791
35 Ar 0.247068 11.0823 6.59928
36 Ar -0.0385825 11.1815 11.1077
37 Ar 4.3981 2.20236 2.33204
38 Ar 4.49522 2.33229 6.49905
39 Ar 4.31799 2.2067 11.0905
40 Ar 4.36346 6.4381 2.04511
41 Ar 4.35845 6.72566 6.70331
42 Ar 4.38795 6.61056 11.0822
43 Ar 4.49595 11.0834 2.16538
44 Ar 4.70548 11.0977 6.65762
45 Ar 4.38386 10.9751 11.188
46 Ar 9.14559 2.23048 2.20478
47 Ar 8.81628 2.38802 6.74754
48 Ar 8.80608 2.33262 11.3176
49 Ar 8.88947 6.68191 2.2134
50 Ar 8.94148 6.81024 6.64803
51 Ar 8.94592 6.59796 11.2024
52 Ar 8.95955 11.0468 2.45542
53 Ar 8.78817 11.3284 6.71933
54 Ar 8.92452 11.134 11.1774
55 Ar 2.26989 -0.0486006 2.23556
56 Ar 2.12396 0.167531 6.57859
57 Ar 2.37553 -0.145848 11.2815
58 Ar 2.07739 4.30646 2.21527
59 Ar 2.16673 4.42692 6.70118
60 Ar 2.10023 4.53462 11.0163
61 Ar 2.43476 8.87779 2.24951
62 Ar 2.30801 8.90728 6.86612
63 Ar 2.05814 8.94824 11.0674
64 Ar 6.82802 -0.00291518 2.12022
65 Ar 6.81498 0.201348 6.65695
66 Ar 6.71305 0.0583968 11.1166
67 Ar 6.66228 4.29625 2.2151
68 Ar 6.55753 4.68677 6.59452
69 Ar 6.60052 4.5597 11.2517
70 Ar 6.76593 8.75315 2.13156
71 Ar 6.65581 8.8107 6.77736
72 Ar 6.5614 8.9141 11.1128
73 Ar 11.1191 0.119405 2.21829
74 Ar 11.2195 -0.180284 6.58042
75 Ar 11.1551 -0.0795616 10.9936
76 Ar 11.1675 4.58603 2.40717
77 Ar 10.899 4.58339 6.64415
78 Ar 11.0797 4.21298 11.1077
79 Ar 11.1799 8.87128 2.37125
80 Ar 11.2168 8.90852 6.77989
81 Ar 11.1967 8.99194 11.0029
82 Ar 2.23441 2.16581 0.0872528
83 Ar 2.23794 2.39685 4.40047
84 Ar 2.21845 2.12349 8.78104
85 Ar 2.15535 6.61639 -0.125679
86 Ar 2.33615 6.7512 4.49413
87 Ar 2.15783 6.68233 8.93558
88 Ar 2.04632 11.0462 0.0738208
89 Ar 2.30169 11.1637 4.40595
90 Ar 2.34468 11.4031 8.94591
91 Ar 6.65339 2.44021 0.0140658
92 Ar 6.73377 2.1629 4.47622
93 Ar 6.51136 2.39692 9.00649
94 Ar 6.64725 6.66175 0.0302387
95 Ar 6.56775 6.56025 4.21564
96 Ar 6.7006 6.52785 8.81673
97 Ar 6.76572 10.9107 -0.128562
98 Ar 6.63243 11.3099 4.36439
99 Ar 6.70846 11.0583 8.79127
100 Ar 11.2025 2.05413 0.0716328
101 Ar 11.0672 2.20376 4.49328
102 Ar 10.9968 2.0965 8.88665
103 Ar 11.2111 6.6424 -0.0960037
104 Ar 11.268 6.79716 4.42073
105 Ar 11.0063 6.58803 8.88828
106 Ar 11.232 11.0543 -0.0148853
107 Ar 11.1827 11.0659 4.51397
108 Ar 11.0315 11.1004 8.91371
ITEM: TIMESTEP
10050
ITEM: NUMBER OF ATOMS
108
ITEM: BOX BOUNDS pp pp pp
0.0000000000000000e+00 1.3349999400000000e+01
0.0000000000000000e+00 1.3349999400000000e+01
0.0000000000000000e+00 1.3349999400000000e+01
ITEM: ATOMS id element xu yu zu
1 Ar 0.0805918 -0.0543435 0.09196
2 Ar 0.073599 0.0802946 4.5082
3 Ar -0.0198931 -0.0830385 8.67401
4 Ar -0.0604242 4.21813 0.0199072
5 Ar -0.0245524 4.60784 4.47639
6 Ar -0.117055 4.36927 8.70421
7 Ar 0.0066519 8.96686 0.0435693
8 Ar 0.141063 8.89501 4.43775
9 Ar 0.027493 8.909 8.97231
10 Ar 4.55102 -0.012451 0.234497
11 Ar 4.45658 0.0866065 4.46059
12 Ar 4.39609 0.102367 8.88082
13 Ar 4.28172 4.48472 -0.10915
14 Ar 4.40341 4.58027 4.42788
15 Ar 4.42619 4.56689 8.86794
16 Ar 4.32305 8.80723 -0.0185958
17 Ar 4.66759 8.89408 4.57572
18 Ar 4.52499 8.77281 8.98383
19 Ar 8.84974 0.0560065 -0.066076
20 Ar 8.9502 -0.019936 4.53666
21 Ar 8.85787 0.0644014 9.09498
22 Ar 8.7804 4.52633 -0.127378
23 Ar 8.90147 4.48342 4.52657
24 Ar 8.7233 4.42013 8.82907
25 Ar 8.9385 8.80339 0.0101049
26 Ar 8.94985 8.82037 4.51446
27 Ar 9.00278 9.04307 8.99298
28 Ar -0.10366 2.31932 2.38364
29 Ar -0.150561 2.32829 6.63773
30 Ar 0.0780697 1.85215 10.7786
31 Ar 0.214035 6.70147 2.11304
32 Ar 0.0501836 6.84685 6.78136
33 Ar -0.218424 6.54163 11.2165
34 Ar -0.0400568 11.0261 2.14897
35 Ar 0.246823 11.0898 6.56935
36 Ar -0.0266736 11.1868 11.1187
37 Ar 4.38163 2.19468 2.3214
38 Ar 4.48728 2.32886 6.49066
39 Ar 4.33188 2.19725 11.1096
40 Ar 4.35541 6.43937 2.05919
41 Ar 4.36742 6.72451 6.71013
42 Ar 4.40594 6.61238 11.0716
43 Ar 4.48581 11.0636 2.17928
44 Ar 4.70832 11.1031 6.6609
45 Ar 4.37858 10.9849 11.1992
46 Ar 9.12882 2.22956 2.20446
47 Ar 8.80893 2.37604 6.7666
48 Ar 8.80032 2.33413 11.3055
49 Ar 8.87087 6.67951 2.21888
50 Ar 8.94443 6.81857 6.65401
51 Ar 8.95826 6.57765 11.1999
52 Ar 8.97551 11.0486 2.44752
53 Ar 8.81061 11.3321 6.72563
54 Ar 8.93788 11.1307 11.1881
55 Ar 2.26013 -0.0433224 2.23897
56 Ar 2.14366 0.153756 6.57788
57 Ar 2.38496 -0.143402 11.2775
58 Ar 2.06452 4.30401 2.2117
59 Ar 2.17404 4.43964 6.69744
60 Ar 2.11385 4.53891 11.0184
61 Ar 2.43654 8.88739 2.25724
62 Ar 2.30613 8.89349 6.86273
63 Ar 2.04847 8.97129 11.0729
64 Ar 6.82632 -0.00959703 2.13092
65 Ar 6.8153 0.191288 6.68247
66 Ar 6.72645 0.0609074 11.1097
67 Ar 6.67235 4.28072 2.21892
68 Ar 6.5594 4.69717 6.56371
69 Ar 6.59203 4.56611 11.2574
70 Ar 6.76685 8.77275 2.12845
71 Ar 6.66006 8.78952 6.78542
72 Ar 6.5808 8.93548 11.1019
73 Ar 11.1232 0.123352 2.21594
74 Ar 11.2171 -0.167316 6.58925
75 Ar 11.1778 -0.0737776 11.0215
76 Ar 11.1805 4.59514 2.39061
77 Ar 10.9011 4.59173 6.61467
78 Ar 11.0791 4.22027 11.1111
79 Ar 11.2032 8.86826 2.36986
80 Ar 11.2253 8.89949 6.77614
81 Ar 11.1757 8.97127 10.9835
82 Ar 2.23027 2.18756 0.0864679
83 Ar 2.22882 2.41519 4.36854
84 Ar 2.21685 2.1058 8.78784
85 Ar 2.15265 6.61848 -0.135084
86 Ar 2.36371 6.76379 4.4947
87 Ar 2.1458 6.70362 8.95793
88 Ar 2.0127 11.024 0.0898439
89 Ar 2.2805 11.1539 4.4001
90 Ar 2.35746 11.4071 8.95051
91 Ar 6.64527 2.44699 -0.00743509
92 Ar 6.73283 2.17493 4.50548
93 Ar 6.51751 2.39223 9.0131
94 Ar 6.64038 6.6683 0.0413217
95 Ar 6.56565 6.54151 4.22148
96 Ar 6.69943 6.53285 8.81671
97 Ar 6.75583 10.8926 -0.138933
98 Ar 6.64297 11.3314 4.3773
99 Ar 6.70315 11.071 8.80752
100 Ar 11.1798 2.03748 0.0595639
101 Ar 11.0609 2.19114 4.51507
102 Ar 11.0196 2.08975 8.87973
103 Ar 11.202 6.61614 -0.0868337
104 Ar 11.2552 6.78421 4.40493
105 Ar 10.9945 6.60636 8.88576
106 Ar 11.23 11.0737 -0.015269
107 Ar 11.1757 11.0639 4.50225
108 Ar 11.0455 11.0851 8.89753
ITEM: TIMESTEP
10060
ITEM: NUMBER OF ATOMS
108
ITEM: BOX BOUNDS pp pp pp
0.0000000000000000e+00 1.3349999400000000e+01
0.0000000000000000e+00 1.3349999400000000e+01
0.0000000000000000e+00 1.3349999400000000e+01
ITEM: ATOMS id element xu yu zu
1 Ar 0.0870225 -0.0515284 0.108214
2 Ar 0.066209 0.0820027 4.49371
3 Ar -0.0391884 -0.0895295 8.6454
4 Ar -0.0668286 4.21788 0.00711865
5 Ar -0.0324358 4.59859 4.47496
6 Ar -0.115529 4.35462 8.70798
7 Ar -0.0109522 8.97057 0.0606134
8 Ar 0.152013 8.90625 4.45209
9 Ar 0.0231851 8.91538 8.99427
10 Ar 4.53968 0.00171145 0.231602
11 Ar 4.4452 0.0877684 4.45506
12 Ar 4.40644 0.111853 8.86864
13 Ar 4.28678 4.47571 -0.120974
14 Ar 4.41379 4.57296 4.4316
15 Ar 4.44624 4.52528 8.85984
16 Ar 4.31248 8.81249 -0.0253437
17 Ar 4.65591 8.88118 4.57366
18 Ar 4.54514 8.75811 8.99142
19 Ar 8.87264 0.0468065 -0.0690854
20 Ar 8.95105 -0.0122541 4.5418
21 Ar 8.87708 0.0615063 9.09742
22 Ar 8.77675 4.53978 -0.135229
23 Ar 8.91276 4.474 4.53021
24 Ar 8.72096 4.42845 8.83712
25 Ar 8.93948 8.8116 -0.00713879
26 Ar 8.94224 8.83046 4.53787
27 Ar 9.00085 9.04242 8.97664
28 Ar -0.125511 2.3184 2.3932
29 Ar -0.159947 2.34369 6.63795
30 Ar 0.0767623 1.84596 10.7734
31 Ar 0.206966 6.70691 2.0939
32 Ar 0.055286 6.8565 6.77501
33 Ar -0.220039 6.52738 11.2031
34 Ar -0.0580626 11.0309 2.16467
35 Ar 0.244315 11.0966 6.54108
36 Ar -0.0138696 11.1926 11.1284
37 Ar 4.36724 2.18842 2.30944
38 Ar 4.47887 2.32532 6.48521
39 Ar 4.34603 2.18872 11.13
40 Ar 4.34734 6.44314 2.07477
41 Ar 4.3768 6.72279 6.71711
42 Ar 4.42404 6.61619 11.0619
43 Ar 4.47699 11.0438 2.19352
44 Ar 4.70711 11.1103 6.66456
45 Ar 4.37469 10.9967 11.2104
46 Ar 9.10783 2.23081 2.20434
47 Ar 8.80245 2.36188 6.78477
48 Ar 8.79554 2.33387 11.2898
49 Ar 8.85418 6.67541 2.22439
50 Ar 8.94605 6.82606 6.66032
51 Ar 8.96975 6.56 11.1944
52 Ar 8.99131 11.051 2.4357
53 Ar 8.83421 11.3318 6.73122
54 Ar 8.95097 11.1274 11.1987
55 Ar 2.2491 -0.0376863 2.2432
56 Ar 2.16658 0.138845 6.57665
57 Ar 2.39325 -0.139064 11.2744
58 Ar 2.05396 4.30523 2.20714
59 Ar 2.18181 4.45319 6.69357
60 Ar 2.12642 4.53947 11.0204
61 Ar 2.43647 8.89622 2.26589
62 Ar 2.30496 8.88212 6.85773
63 Ar 2.04096 8.99311 11.0792
64 Ar 6.8245 -0.0153306 2.14262
65 Ar 6.81246 0.179768 6.71044
66 Ar 6.7363 0.0620983 11.1039
67 Ar 6.68295 4.26649 2.22351
68 Ar 6.56274 4.70414 6.53277
69 Ar 6.58292 4.57176 11.2598
70 Ar 6.76535 8.79522 2.12746
71 Ar 6.66666 8.76888 6.79206
72 Ar 6.60302 8.95351 11.0901
73 Ar 11.1283 0.121846 2.21536
74 Ar 11.2133 -0.152305 6.59955
75 Ar 11.1994 -0.0673268 11.0518
76 Ar 11.1923 4.60334 2.37094
77 Ar 10.9072 4.59876 6.58613
78 Ar 11.0801 4.22824 11.1139
79 Ar 11.2256 8.86489 2.36511
80 Ar 11.2329 8.89192 6.771
81 Ar 11.1545 8.94863 10.9677
82 Ar 2.22549 2.20864 0.08365
83 Ar 2.21852 2.43083 4.3393
84 Ar 2.21593 2.09088 8.79514
85 Ar 2.14927 6.6215 -0.144321
86 Ar 2.38935 6.77607 4.49461
87 Ar 2.13356 6.72418 8.98055
88 Ar 1.98437 11.0032 0.10472
89 Ar 2.26083 11.1433 4.39474
90 Ar 2.36898 11.4065 8.9529
91 Ar 6.63515 2.4492 -0.0284011
92 Ar 6.73252 2.18866 4.53205
93 Ar 6.52459 2.38621 9.01837
94 Ar 6.63283 6.67513 0.0515366
95 Ar 6.56542 6.52551 4.22889
96 Ar 6.6989 6.54141 8.81988
97 Ar 6.74481 10.8782 -0.145844
98 Ar 6.65446 11.3501 4.39091
99 Ar 6.69712 11.0857 8.82728
100 Ar 11.1576 2.02346 0.0440606
101 Ar 11.0548 2.17959 4.53796
102 Ar 11.0428 2.08474 8.87173
103 Ar 11.1909 6.59022 -0.0738602
104 Ar 11.2415 6.77076 4.39113
105 Ar 10.984 6.62486 8.88445
106 Ar 11.2246 11.0942 -0.0148711
107 Ar 11.1696 11.062 4.49052
108 Ar 11.062 11.0724 8.8797
ITEM: TIMESTEP
10070
ITEM: NUMBER OF ATOMS
108
ITEM: BOX BOUNDS pp pp pp
0.0000000000000000e+00 1.3349999400000000e+01
0.0000000000000000e+00 1.3349999400000000e+01
0.0000000000000000e+00 1.3349999400000000e+01
ITEM: ATOMS id element xu yu zu
1 Ar 0.0923403 -0.0465466 0.123325
2 Ar 0.0578508 0.0827341 4.47706
3 Ar -0.0581162 -0.0973238 8.61789
4 Ar -0.0733535 4.21853 -0.0074024
5 Ar -0.0393595 4.58958 4.47525
6 Ar -0.114094 4.34196 8.71496
7 Ar -0.0301208 8.97004 0.0757531
8 Ar 0.16287 8.91684 4.46618
9 Ar 0.0182405 8.92303 9.01467
10 Ar 4.52842 0.0151173 0.225054
11 Ar 4.43374 0.0873642 4.44952
12 Ar 4.42034 0.120539 8.85562
13 Ar 4.29236 4.46499 -0.131512
14 Ar 4.42322 4.56314 4.43461
15 Ar 4.46449 4.48204 8.85183
16 Ar 4.30325 8.81771 -0.0326796
17 Ar 4.64308 8.86922 4.56915
18 Ar 4.56308 8.74587 8.99817
19 Ar 8.89589 0.0356661 -0.0710095
20 Ar 8.95221 -0.00313478 4.54507
21 Ar 8.89614 0.0583975 9.0974
22 Ar 8.77682 4.55224 -0.137584
23 Ar 8.92259 4.46487 4.53098
24 Ar 8.72109 4.43716 8.8472
25 Ar 8.94261 8.82028 -0.0247655
26 Ar 8.93271 8.84229 4.56094
27 Ar 8.99526 9.03868 8.95885
28 Ar -0.147145 2.31539 2.40153
29 Ar -0.168176 2.35769 6.63703
30 Ar 0.0757709 1.84409 10.7734
31 Ar 0.198288 6.71237 2.07644
32 Ar 0.0598121 6.86314 6.76723
33 Ar -0.219236 6.51413 11.1866
34 Ar -0.0759225 11.038 2.18486
35 Ar 0.239507 11.1025 6.51507
36 Ar -0.000643303 11.1991 11.1367
37 Ar 4.35533 2.18382 2.29634
38 Ar 4.46991 2.32169 6.48272
39 Ar 4.36027 2.18102 11.1512
40 Ar 4.33938 6.44913 2.09129
41 Ar 4.38637 6.72038 6.72445
42 Ar 4.44195 6.62182 11.0532
43 Ar 4.4697 11.0247 2.20783
44 Ar 4.702 11.1189 6.66847
45 Ar 4.37227 11.0104 11.2215
46 Ar 9.08323 2.23406 2.20446
47 Ar 8.79706 2.34595 6.80211
48 Ar 8.79187 2.33203 11.271
49 Ar 8.83953 6.66996 2.22991
50 Ar 8.9464 6.83229 6.66684
51 Ar 8.98008 6.54545 11.186
52 Ar 9.00666 11.0541 2.42012
53 Ar 8.85849 11.3276 6.73617
54 Ar 8.96384 11.124 11.2089
55 Ar 2.23697 -0.0318692 2.24812
56 Ar 2.19211 0.123099 6.57467
57 Ar 2.40018 -0.132863 11.2722
58 Ar 2.04568 4.31051 2.20137
59 Ar 2.18989 4.46739 6.68972
60 Ar 2.13796 4.53622 11.0221
61 Ar 2.4343 8.90389 2.27526
62 Ar 2.30461 8.87349 6.85149
63 Ar 2.03584 9.01339 11.0865
64 Ar 6.8225 -0.0200006 2.15485
65 Ar 6.80657 0.166906 6.7404
66 Ar 6.74264 0.061811 11.0995
67 Ar 6.69378 4.25356 2.2287
68 Ar 6.56778 4.70755 6.50277
69 Ar 6.57347 4.57667 11.2586
70 Ar 6.76161 8.82018 2.12881
71 Ar 6.67521 8.74953 6.79712
72 Ar 6.6278 8.96783 11.0777
73 Ar 11.1341 0.115219 2.21667
74 Ar 11.208 -0.135595 6.61075
75 Ar 11.2195 -0.0605497 11.0838
76 Ar 11.2024 4.61026 2.34841
77 Ar 10.9172 4.60452 6.55941
78 Ar 11.0825 4.23652 11.1159
79 Ar 11.2465 8.861 2.35726
80 Ar 11.2394 8.8859 6.76434
81 Ar 11.1335 8.92445 10.9561
82 Ar 2.2199 2.22867 0.0787425
83 Ar 2.20714 2.44336 4.31357
84 Ar 2.21566 2.07885 8.80276
85 Ar 2.14541 6.62545 -0.15339
86 Ar 2.41249 6.78766 4.49378
87 Ar 2.1215 6.74357 9.00321
88 Ar 1.96187 10.9842 0.11839
89 Ar 2.24318 11.1322 4.38978
90 Ar 2.37902 11.4015 8.95294
91 Ar 6.62343 2.44674 -0.0484173
92 Ar 6.73275 2.20362 4.55571
93 Ar 6.53272 2.37885 9.02224
94 Ar 6.62461 6.6823 0.0607815
95 Ar 6.56716 6.5129 4.23735
96 Ar 6.69907 6.55292 8.8261
97 Ar 6.73271 10.8681 -0.149078
98 Ar 6.66674 11.3658 4.40519
99 Ar 6.69057 11.1021 8.85
100 Ar 11.1361 2.0125 0.0255073
101 Ar 11.0485 2.16931 4.56136
102 Ar 11.0657 2.0816 8.86293
103 Ar 11.1782 6.56513 -0.0575629
104 Ar 11.2271 6.75729 4.37938
105 Ar 10.9752 6.64293 8.88406
106 Ar 11.2161 11.1155 -0.0137487
107 Ar 11.1643 11.0605 4.47922
108 Ar 11.0807 11.0625 8.86086
ITEM: TIMESTEP
10080
ITEM: NUMBER OF ATOMS
108
ITEM: BOX BOUNDS pp pp pp
0.0000000000000000e+00 1.3349999400000000e+01
0.0000000000000000e+00 1.3349999400000000e+01
0.0000000000000000e+00 1.3349999400000000e+01
ITEM: ATOMS id element xu yu zu
1 Ar 0.0966078 -0.0393482 0.13712
2 Ar 0.0487477 0.0825797 4.45891
3 Ar -0.0759289 -0.106248 8.59212
4 Ar -0.079943 4.21983 -0.0234676
5 Ar -0.0451931 4.58117 4.47709
6 Ar -0.112676 4.3317 8.72506
7 Ar -0.0509607 8.9653 0.088509
8 Ar 0.173246 8.92616 4.47966
9 Ar 0.0127361 8.93188 9.03299
10 Ar 4.51741 0.0272696 0.215265
11 Ar 4.42245 0.0854392 4.44389
12 Ar 4.43745 0.128336 8.84212
13 Ar 4.29832 4.45321 -0.140268
14 Ar 4.43133 4.55081 4.43667
15 Ar 4.48061 4.43801 8.84398
16 Ar 4.29542 8.82272 -0.0405206
17 Ar 4.6297 8.85856 4.56254
18 Ar 4.57842 8.73655 9.00392
19 Ar 8.91868 0.0227223 -0.0717292
20 Ar 8.95352 0.00724585 4.54655
21 Ar 8.91521 0.0549387 9.09521
22 Ar 8.78026 4.56315 -0.134489
23 Ar 8.93087 4.45604 4.52873
24 Ar 8.72371 4.44606 8.85884
25 Ar 8.94784 8.82905 -0.0423635
26 Ar 8.92144 8.85583 4.58308
27 Ar 8.98608 9.03231 8.9398
28 Ar -0.168468 2.31057 2.40821
29 Ar -0.174673 2.36995 6.63481
30 Ar 0.0752787 1.84639 10.7784
31 Ar 0.188304 6.71769 2.06108
32 Ar 0.0637406 6.86655 6.75828
33 Ar -0.216348 6.50213 11.1677
34 Ar -0.0934052 11.0475 2.20914
35 Ar 0.232377 11.1077 6.49187
36 Ar 0.0125499 11.2061 11.1435
37 Ar 4.3462 2.18106 2.28231