ITEM: TIMESTEP
84000
ITEM: NUMBER OF ATOMS
108
ITEM: BOX BOUNDS pp pp pp
0.0000000000000000e+00 1.3349999400000000e+01
0.0000000000000000e+00 1.3349999400000000e+01
0.0000000000000000e+00 1.3349999400000000e+01
ITEM: ATOMS id element xu yu zu
1 Ar 0.288955 -0.00136638 -0.0102897
2 Ar 0.0394567 0.0485335 4.35385
3 Ar 0.0500494 0.0563113 8.83658
4 Ar 0.0145202 4.48506 -0.10094
5 Ar -0.207255 4.52813 4.49671
6 Ar 0.0977627 4.50223 8.91097
7 Ar -0.013312 8.89322 -0.00510559
8 Ar 0.0278938 8.74972 4.53619
9 Ar -0.0699274 8.93877 9.01193
10 Ar 4.49717 -0.113683 -0.0378609
11 Ar 4.25785 0.014885 4.44769
12 Ar 4.43001 -0.074584 8.74651
13 Ar 4.48485 4.32333 0.0743891
14 Ar 4.54217 4.62619 4.45674
15 Ar 4.28785 4.2839 8.98601
16 Ar 4.28581 8.68566 -0.143726
17 Ar 4.49107 8.91619 4.53158
18 Ar 4.45122 8.93639 8.96568
19 Ar 8.8851 -0.0195378 0.048144
20 Ar 8.88136 -0.0399278 4.40044
21 Ar 8.99896 0.0666168 8.86343
22 Ar 8.78288 4.57287 0.0553584
23 Ar 8.97147 4.52275 4.30775
24 Ar 8.94466 4.2478 8.82071
25 Ar 9.06284 9.05424 0.00938342
26 Ar 8.79675 9.0635 4.54405
27 Ar 9.04253 8.79066 8.7763
28 Ar 0.0373754 2.37817 2.345
29 Ar 0.0269308 2.32854 6.4314
30 Ar 0.0453077 2.21524 11.1471
31 Ar -0.0815082 6.60675 2.16919
32 Ar 0.0213129 6.67263 6.70967
33 Ar -0.0940264 6.76691 11.1465
34 Ar 0.116676 11.2317 2.15535
35 Ar 0.0762088 11.3203 6.7945
36 Ar -0.0873725 11.2327 11.0408
37 Ar 4.53861 2.20971 2.16132
38 Ar 4.41349 2.13577 6.60806
39 Ar 4.48574 2.2022 11.0648
40 Ar 4.48684 6.65807 2.1459
41 Ar 4.5109 6.45931 6.90755
42 Ar 4.5963 6.51798 11.0662
43 Ar 4.20654 11.0772 2.25948
44 Ar 4.27002 10.9575 6.57934
45 Ar 4.50094 11.0434 10.9498
46 Ar 8.96067 2.4034 2.23778
47 Ar 8.88783 2.18904 6.65356
48 Ar 8.9331 2.25697 11.3794
49 Ar 8.87186 7.05965 2.17787
50 Ar 8.88662 6.54927 6.55742
51 Ar 8.83953 6.60371 11.2661
52 Ar 8.8861 11.1752 2.37042
53 Ar 8.9748 11.1619 6.64981
54 Ar 8.82412 11.2287 11.0541
55 Ar 2.26097 0.0468903 2.29748
56 Ar 2.23051 0.00754593 6.60401
57 Ar 2.175 -0.157109 10.9635
58 Ar 2.11694 4.48529 2.1811
59 Ar 2.12463 4.5667 6.60856
60 Ar 2.22485 4.4249 11.1364
61 Ar 2.23717 8.81674 2.11527
62 Ar 2.32816 8.59076 6.78729
63 Ar 2.19827 8.89042 11.1097
64 Ar 6.59513 -0.201529 2.21639
65 Ar 6.68568 -0.110097 6.73075
66 Ar 6.62666 0.0588388 11.157
67 Ar 6.87771 4.63346 2.35858
68 Ar 6.8018 4.36763 6.61587
69 Ar 6.66147 4.36267 11.1661
70 Ar 6.55471 8.89017 2.29831
71 Ar 6.62668 8.83001 6.82541
72 Ar 6.68601 8.99517 11.0542
73 Ar 11.1795 -0.0155246 2.14285
74 Ar 11.1047 0.126714 6.62871
75 Ar 11.1226 -0.115188 11.1378
76 Ar 11.0871 4.41804 2.32836
77 Ar 11.1932 4.52307 6.76073
78 Ar 11.0875 4.52811 11.1058
79 Ar 11.1298 9.01784 2.36894
80 Ar 11.1627 8.87481 6.63029
81 Ar 11.1429 8.94317 11.089
82 Ar 2.39585 2.14878 0.0601269
83 Ar 2.33821 2.36548 4.42178
84 Ar 2.12004 2.27804 8.77218
85 Ar 2.35095 6.531 -0.0652835
86 Ar 2.21272 6.62871 4.48845
87 Ar 2.16853 6.66181 9.07061
88 Ar 2.21253 11.1197 -0.00763996
89 Ar 2.10355 11.0081 4.49374
90 Ar 2.23453 10.9561 8.79234
91 Ar 6.6256 2.21389 0.0843274
92 Ar 6.67179 2.24054 4.56618
93 Ar 6.67275 2.20218 8.71932
94 Ar 6.78089 6.87938 0.0303919
95 Ar 6.65022 6.80271 4.53582
96 Ar 6.7704 6.57406 9.00341
97 Ar 6.45234 10.8038 0.00950241
98 Ar 6.5767 11.256 4.53253
99 Ar 6.8276 11.0286 9.01502
100 Ar 11.3108 2.39362 0.00418648
101 Ar 11.0142 2.39517 4.5362
102 Ar 11.2055 2.15241 8.9955
103 Ar 11.0262 6.65021 -0.00501804
104 Ar 10.9881 6.75035 4.24181
105 Ar 11.1326 6.65811 8.84037
106 Ar 11.1056 11.164 -0.0725811
107 Ar 11.2232 11.1218 4.483
108 Ar 10.8985 11.2656 8.8746
ITEM: TIMESTEP
84010
ITEM: NUMBER OF ATOMS
108
ITEM: BOX BOUNDS pp pp pp
0.0000000000000000e+00 1.3349999400000000e+01
0.0000000000000000e+00 1.3349999400000000e+01
0.0000000000000000e+00 1.3349999400000000e+01
ITEM: ATOMS id element xu yu zu
1 Ar 0.288412 0.00847207 0.00036348
2 Ar 0.0473229 0.0538059 4.34447
3 Ar 0.0440386 0.0520528 8.83566
4 Ar 0.0118294 4.48469 -0.090037
5 Ar -0.203097 4.52554 4.481
6 Ar 0.107348 4.50508 8.91385
7 Ar -0.00109626 8.87005 -0.0288788
8 Ar 0.041659 8.76645 4.54237
9 Ar -0.0642115 8.93458 9.02257
10 Ar 4.48397 -0.109651 -0.0438164
11 Ar 4.30597 0.0140376 4.43773
12 Ar 4.43984 -0.0674326 8.75078
13 Ar 4.4865 4.33595 0.0698374
14 Ar 4.55659 4.61493 4.4426
15 Ar 4.31376 4.28614 9.00717
16 Ar 4.30937 8.71307 -0.146827
17 Ar 4.50329 8.90682 4.52606
18 Ar 4.45553 8.94308 8.98038
19 Ar 8.88671 -0.028248 0.0601586
20 Ar 8.86266 -0.0598252 4.41002
21 Ar 8.99396 0.0679138 8.88232
22 Ar 8.78606 4.55652 0.0677152
23 Ar 8.98058 4.52612 4.28457
24 Ar 8.96446 4.25702 8.82829
25 Ar 9.05374 9.0524 -0.0111936
26 Ar 8.79002 9.0235 4.53905
27 Ar 9.05267 8.77622 8.77896
28 Ar 0.0438384 2.34698 2.35347
29 Ar 0.0481749 2.32462 6.41851
30 Ar 0.0437229 2.23832 11.154
31 Ar -0.0804011 6.60376 2.17609
32 Ar 0.0346251 6.67409 6.71002
33 Ar -0.0968254 6.77357 11.1465
34 Ar 0.129252 11.2366 2.17325
35 Ar 0.0841562 11.31 6.81289
36 Ar -0.102544 11.1987 11.0412
37 Ar 4.52472 2.21656 2.14417
38 Ar 4.40319 2.15752 6.59836
39 Ar 4.49594 2.21897 11.0673
40 Ar 4.48146 6.67404 2.14291
41 Ar 4.52671 6.44681 6.9332
42 Ar 4.57087 6.52409 11.0856
43 Ar 4.19281 11.0715 2.25741
44 Ar 4.2533 10.9713 6.59981
45 Ar 4.49721 11.038 10.9577
46 Ar 8.93935 2.40797 2.22431
47 Ar 8.88712 2.1988 6.66015
48 Ar 8.94154 2.25849 11.3624
49 Ar 8.87969 7.0663 2.15929
50 Ar 8.88532 6.55166 6.57303
51 Ar 8.84054 6.61848 11.2645
52 Ar 8.87912 11.169 2.35852
53 Ar 8.96533 11.1605 6.64995
54 Ar 8.81019 11.2073 11.0491
55 Ar 2.26599 0.0557009 2.31032
56 Ar 2.21564 0.0106972 6.60773
57 Ar 2.17177 -0.16355 10.9662
58 Ar 2.11453 4.4779 2.15759
59 Ar 2.12477 4.55566 6.61575
60 Ar 2.23798 4.43894 11.1489
61 Ar 2.2274 8.83077 2.12656
62 Ar 2.324 8.59477 6.78459
63 Ar 2.17233 8.89122 11.0993
64 Ar 6.59639 -0.212636 2.21345
65 Ar 6.67646 -0.12697 6.72484
66 Ar 6.61161 0.0546924 11.1478
67 Ar 6.88603 4.63903 2.37309
68 Ar 6.76873 4.36652 6.61751
69 Ar 6.66471 4.35887 11.153
70 Ar 6.54016 8.90154 2.30316
71 Ar 6.62042 8.83577 6.83493
72 Ar 6.70005 8.96928 11.059
73 Ar 11.1877 -0.0209308 2.14313
74 Ar 11.0864 0.116851 6.62425
75 Ar 11.1057 -0.0917665 11.1472
76 Ar 11.0785 4.44385 2.33668
77 Ar 11.1966 4.52822 6.76369
78 Ar 11.0739 4.52165 11.103
79 Ar 11.1459 9.04706 2.38114
80 Ar 11.1359 8.85895 6.63097
81 Ar 11.1388 8.9585 11.1157
82 Ar 2.38215 2.16589 0.0643327
83 Ar 2.3302 2.35288 4.40999
84 Ar 2.12752 2.30133 8.77711
85 Ar 2.35417 6.52497 -0.0823307
86 Ar 2.20902 6.63194 4.50935
87 Ar 2.17607 6.64765 9.07896
88 Ar 2.21183 11.0973 -0.00307482
89 Ar 2.10309 10.9868 4.5106
90 Ar 2.22435 10.9678 8.79923
91 Ar 6.63417 2.21108 0.0847632
92 Ar 6.67217 2.24626 4.55361
93 Ar 6.67892 2.19821 8.72481
94 Ar 6.79749 6.89221 0.0217475
95 Ar 6.62891 6.80223 4.53361
96 Ar 6.77816 6.57121 8.98366
97 Ar 6.46083 10.8034 -0.00101239
98 Ar 6.57175 11.2461 4.47534
99 Ar 6.82111 10.9956 9.01051
100 Ar 11.3107 2.41848 -0.00296119
101 Ar 11.0177 2.39658 4.55905
102 Ar 11.1985 2.17367 8.97336
103 Ar 11.0256 6.65602 -0.0129466
104 Ar 11.0178 6.74414 4.24498
105 Ar 11.1376 6.65031 8.82602
106 Ar 11.1058 11.1734 -0.0813937
107 Ar 11.2233 11.1168 4.47736
108 Ar 10.9065 11.2635 8.86695
ITEM: TIMESTEP
84020
ITEM: NUMBER OF ATOMS
108
ITEM: BOX BOUNDS pp pp pp
0.0000000000000000e+00 1.3349999400000000e+01
0.0000000000000000e+00 1.3349999400000000e+01
0.0000000000000000e+00 1.3349999400000000e+01
ITEM: ATOMS id element xu yu zu
1 Ar 0.283793 0.019593 0.0106872
2 Ar 0.0539485 0.0588378 4.33684
3 Ar 0.0368749 0.0486462 8.83537
4 Ar 0.00962556 4.48507 -0.0783688
5 Ar -0.195863 4.52464 4.46445
6 Ar 0.114271 4.5069 8.91745
7 Ar 0.0104833 8.84753 -0.0514144
8 Ar 0.0553336 8.7848 4.5474
9 Ar -0.0588053 8.93054 9.02973
10 Ar 4.46977 -0.105686 -0.0499885
11 Ar 4.35654 0.0123502 4.42807
12 Ar 4.44941 -0.0602631 8.75674
13 Ar 4.48954 4.35105 0.0646364
14 Ar 4.56953 4.60155 4.42796
15 Ar 4.34202 4.28963 9.0256
16 Ar 4.33419 8.74267 -0.149339
17 Ar 4.51338 8.89581 4.5198
18 Ar 4.46016 8.94636 8.9938
19 Ar 8.8875 -0.0368928 0.072441
20 Ar 8.8449 -0.0771305 4.41966
21 Ar 8.98562 0.0709097 8.90213
22 Ar 8.79064 4.53913 0.0803165
23 Ar 8.98801 4.53058 4.26647
24 Ar 8.98345 4.26831 8.83805
25 Ar 9.04282 9.05111 -0.0323248
26 Ar 8.78358 8.98285 4.53434
27 Ar 9.06084 8.76241 8.78346
28 Ar 0.049065 2.31435 2.36012
29 Ar 0.0688144 2.31884 6.40905
30 Ar 0.0426834 2.26054 11.1603
31 Ar -0.0782212 6.60253 2.18255
32 Ar 0.0461118 6.6762 6.71085
33 Ar -0.0990228 6.77809 11.1469
34 Ar 0.139982 11.2388 2.19164
35 Ar 0.0889119 11.2958 6.8288
36 Ar -0.116244 11.1638 11.0422
37 Ar 4.51142 2.22356 2.13077
38 Ar 4.39334 2.18133 6.58973
39 Ar 4.50444 2.23347 11.0706
40 Ar 4.47556 6.68931 2.14115
41 Ar 4.54227 6.43618 6.95753
42 Ar 4.54504 6.5316 11.1054
43 Ar 4.18186 11.0656 2.25544
44 Ar 4.23946 10.9872 6.62162
45 Ar 4.49182 11.0353 10.9684
46 Ar 8.91714 2.40729 2.20997
47 Ar 8.88714 2.2084 6.66585
48 Ar 8.94985 2.25918 11.3432
49 Ar 8.88773 7.06957 2.14224
50 Ar 8.88456 6.55536 6.5896
51 Ar 8.84262 6.63481 11.2593
52 Ar 8.87237 11.1613 2.34412
53 Ar 8.95434 11.1586 6.64993
54 Ar 8.79759 11.1853 11.0472
55 Ar 2.27108 0.0647596 2.32198
56 Ar 2.2006 0.014547 6.61177
57 Ar 2.17113 -0.167911 10.9696
58 Ar 2.11433 4.47094 2.13569
59 Ar 2.12716 4.54302 6.62353
60 Ar 2.25066 4.45148 11.1621
61 Ar 2.21636 8.84335 2.1395
62 Ar 2.31888 8.60117 6.78132
63 Ar 2.1466 8.89253 11.0898
64 Ar 6.5975 -0.220993 2.20963
65 Ar 6.66696 -0.143476 6.71851
66 Ar 6.59792 0.0498689 11.1377
67 Ar 6.89001 4.64402 2.38512
68 Ar 6.73454 4.36701 6.61992
69 Ar 6.669 4.35487 11.1395
70 Ar 6.52588 8.91498 2.30779
71 Ar 6.61478 8.84244 6.84349
72 Ar 6.71536 8.93949 11.0645
73 Ar 11.1956 -0.0245792 2.144
74 Ar 11.07 0.106098 6.61922
75 Ar 11.0893 -0.0648027 11.1574
76 Ar 11.0714 4.47085 2.34015
77 Ar 11.1988 4.53204 6.76587
78 Ar 11.061 4.51456 11.0997
79 Ar 11.1635 9.07656 2.39025
80 Ar 11.1101 8.84379 6.63147
81 Ar 11.1328 8.97341 11.1419
82 Ar 2.36653 2.1835 0.0666199
83 Ar 2.32186 2.34106 4.39779
84 Ar 2.13568 2.32231 8.78288
85 Ar 2.35459 6.52026 -0.0990607
86 Ar 2.20653 6.63548 4.52732
87 Ar 2.18479 6.63387 9.08633
88 Ar 2.21218 11.0742 -0.000678452
89 Ar 2.10263 10.9657 4.52716
90 Ar 2.21389 10.9809 8.80756
91 Ar 6.6443 2.20774 0.0851631
92 Ar 6.67254 2.25027 4.53798
93 Ar 6.68445 2.19381 8.73321
94 Ar 6.81134 6.90346 0.0127633
95 Ar 6.60861 6.80073 4.53131
96 Ar 6.78632 6.56813 8.96317
97 Ar 6.47124 10.8066 -0.0107163
98 Ar 6.56639 11.2337 4.4191
99 Ar 6.81305 10.9656 9.00133
100 Ar 11.3081 2.43999 -0.0090583
101 Ar 11.0217 2.39425 4.58008
102 Ar 11.192 2.19608 8.95065
103 Ar 11.0266 6.66243 -0.0195138
104 Ar 11.0483 6.7385 4.25182
105 Ar 11.1421 6.64254 8.81362
106 Ar 11.1076 11.1827 -0.0880422
107 Ar 11.224 11.1133 4.47269
108 Ar 10.9189 11.2586 8.85896
ITEM: TIMESTEP
84030
ITEM: NUMBER OF ATOMS
108
ITEM: BOX BOUNDS pp pp pp
0.0000000000000000e+00 1.3349999400000000e+01
0.0000000000000000e+00 1.3349999400000000e+01
0.0000000000000000e+00 1.3349999400000000e+01
ITEM: ATOMS id element xu yu zu
1 Ar 0.275372 0.0315555 0.020439
2 Ar 0.0591405 0.0631868 4.33142
3 Ar 0.028524 0.0464225 8.836
4 Ar 0.00785389 4.48644 -0.0661065
5 Ar -0.185497 4.52513 4.4474
6 Ar 0.11837 4.50772 8.92181
7 Ar 0.0212858 8.826 -0.0719455
8 Ar 0.0684411 8.80437 4.55148
9 Ar -0.0540998 8.92643 9.03305
10 Ar 4.45466 -0.101794 -0.0562439
11 Ar 4.40849 0.0100549 4.41907
12 Ar 4.45846 -0.0529829 8.76429
13 Ar 4.49427 4.36834 0.0589451
14 Ar 4.58037 4.58634 4.41289
15 Ar 4.37225 4.29438 9.04115
16 Ar 4.3594 8.77374 -0.151225
17 Ar 4.5209 8.88366 4.51343
18 Ar 4.46472 8.9461 9.00583
19 Ar 8.88737 -0.0452592 0.0846089
20 Ar 8.82831 -0.0916272 4.42911
21 Ar 8.9742 0.0752752 8.92252
22 Ar 8.79644 4.52128 0.092581
23 Ar 8.99366 4.53623 4.25417
24 Ar 9.001 4.28162 8.8496
25 Ar 9.03042 9.05053 -0.053416
26 Ar 8.77753 8.94222 4.52994
27 Ar 9.06698 8.74951 8.78993
28 Ar 0.0526492 2.28111 2.36469
29 Ar 0.0884282 2.31135 6.40321
30 Ar 0.0421988 2.28161 11.1657
31 Ar -0.0747954 6.60332 2.18836
32 Ar 0.0556057 6.67889 6.71217
33 Ar -0.100855 6.78003 11.1473
34 Ar 0.148899 11.2386 2.21007
35 Ar 0.0902123 11.2779 6.84188
36 Ar -0.128363 11.1291 11.0439
37 Ar 4.49899 2.23065 2.12108
38 Ar 4.38403 2.20666 6.58225
39 Ar 4.51105 2.24537 11.0748
40 Ar 4.46908 6.7037 2.14044
41 Ar 4.55687 6.42771 6.98007
42 Ar 4.51969 6.54056 11.125
43 Ar 4.17369 11.0598 2.25356
44 Ar 4.22883 11.0048 6.64417
45 Ar 4.48496 11.0352 10.9817
46 Ar 8.89472 2.40127 2.19531
47 Ar 8.88753 2.21784 6.67058
48 Ar 8.9577 2.25892 11.322
49 Ar 8.89611 7.06971 2.12706
50 Ar 8.88408 6.55988 6.60652
51 Ar 8.84594 6.65208 11.2506
52 Ar 8.86616 11.1519 2.32746
53 Ar 8.94191 11.156 6.64967
54 Ar 8.78654 11.1631 11.0481
55 Ar 2.27648 0.0736847 2.33231
56 Ar 2.18602 0.0191377 6.61589
57 Ar 2.17274 -0.170145 10.9735
58 Ar 2.1163 4.4646 2.11588
59 Ar 2.13195 4.52912 6.63164
60 Ar 2.26261 4.46206 11.1758
61 Ar 2.20417 8.854 2.15378
62 Ar 2.31321 8.60985 6.77794
63 Ar 2.12192 8.89429 11.0811
64 Ar 6.59834 -0.226197 2.20442
65 Ar 6.65727 -0.159482 6.71176
66 Ar 6.58581 0.0443247 11.1269
67 Ar 6.88939 4.64861 2.3942
68 Ar 6.70013 4.36881 6.6231
69 Ar 6.67451 4.35108 11.1259
70 Ar 6.51231 8.93002 2.31178
71 Ar 6.60976 8.84987 6.85069
72 Ar 6.73146 8.90637 11.0702
73 Ar 11.2029 -0.0264148 2.14552
74 Ar 11.0556 0.0945313 6.61376
75 Ar 11.074 -0.034923 11.1682
76 Ar 11.066 4.49816 2.33854
77 Ar 11.2002 4.53448 6.7669
78 Ar 11.0491 4.50723 11.096
79 Ar 11.1825 9.10557 2.39594
80 Ar 11.0858 8.82956 6.63158
81 Ar 11.125 8.98746 11.1669
82 Ar 2.34921 2.20133 0.0667861
83 Ar 2.31369 2.3302 4.38532
84 Ar 2.14447 2.34057 8.78962
85 Ar 2.35234 6.51763 -0.114865
86 Ar 2.20552 6.63899 4.54207
87 Ar 2.19465 6.62075 9.0924
88 Ar 2.21321 11.0511 -0.000531067
89 Ar 2.10255 10.9454 4.54333
90 Ar 2.20344 10.9953 8.81744
91 Ar 6.65567 2.20389 0.0853626
92 Ar 6.67307 2.25255 4.51962
93 Ar 6.6894 2.18904 8.74416
94 Ar 6.82215 6.91274 0.00382132
95 Ar 6.58975 6.79815 4.52914
96 Ar 6.79474 6.56482 8.94267
97 Ar 6.48357 10.8137 -0.0195788
98 Ar 6.56068 11.2186 4.36502
99 Ar 6.80353 10.939 8.98794
100 Ar 11.3031 2.45788 -0.0137264
101 Ar 11.0262 2.38836 4.59873
102 Ar 11.1865 2.21905 8.92752
103 Ar 11.0293 6.66931 -0.0246792
104 Ar 11.0789 6.73386 4.26227
105 Ar 11.1465 6.63501 8.80359
106 Ar 11.1111 11.1919 -0.0923198
107 Ar 11.2253 11.1114 4.46943
108 Ar 10.9352 11.2513 8.85089
ITEM: TIMESTEP
84040
ITEM: NUMBER OF ATOMS
108
ITEM: BOX BOUNDS pp pp pp
0.0000000000000000e+00 1.3349999400000000e+01
0.0000000000000000e+00 1.3349999400000000e+01
0.0000000000000000e+00 1.3349999400000000e+01
ITEM: ATOMS id element xu yu zu
1 Ar 0.26348 0.0439029 0.029399
2 Ar 0.0627586 0.0664182 4.32866
3 Ar 0.0189776 0.0456071 8.83777
4 Ar 0.00641339 4.48894 -0.0534158
5 Ar -0.172024 4.52663 4.43018
6 Ar 0.119575 4.50763 8.92689
7 Ar 0.031182 8.80576 -0.0897602
8 Ar 0.0804875 8.82471 4.55478
9 Ar -0.0504491 8.92199 9.0323
10 Ar 4.43874 -0.0979463 -0.0624344
11 Ar 4.46075 0.00740898 4.41102
12 Ar 4.46675 -0.0454954 8.77328
13 Ar 4.50096 4.3875 0.0529447
14 Ar 4.58858 4.5696 4.39746
15 Ar 4.40404 4.30038 9.05378
16 Ar 4.38422 8.80552 -0.152427
17 Ar 4.52546 8.87089 4.50755
18 Ar 4.46884 8.94231 9.01646
19 Ar 8.88629 -0.0531632 0.096288
20 Ar 8.81303 -0.103222 4.4381
21 Ar 8.96005 0.0805877 8.94313
22 Ar 8.8033 4.50359 0.103949
23 Ar 8.99751 4.54305 4.2481
24 Ar 9.01649 4.29687 8.86256
25 Ar 9.01685 9.05073 -0.0738262
26 Ar 8.77193 8.90221 4.52584
27 Ar 9.07107 8.73782 8.79846
28 Ar 0.0542676 2.24809 2.36694
29 Ar 0.106608 2.30239 6.40106
30 Ar 0.0422499 2.30123 11.1701
31 Ar -0.0699725 6.60631 2.19338
32 Ar 0.0630178 6.68205 6.71397
33 Ar -0.102547 6.77903 11.1476
34 Ar 0.156108 11.236 2.22813
35 Ar 0.0879369 11.2565 6.85187
36 Ar -0.138781 11.0957 11.0464
37 Ar 4.48769 2.23777 2.11493
38 Ar 4.37534 2.23293 6.57598
39 Ar 4.51563 2.25442 11.0804
40 Ar 4.46193 6.71711 2.14058
41 Ar 4.56983 6.42174 7.00034
42 Ar 4.49563 6.55097 11.144
43 Ar 4.16822 11.0543 2.25175
44 Ar 4.22166 11.0238 6.66691
45 Ar 4.47688 11.0375 10.9972
46 Ar 8.87279 2.38998 2.18092
47 Ar 8.88793 2.22712 6.67434
48 Ar 8.96476 2.25764 11.2993
49 Ar 8.9049 7.06701 2.11394
50 Ar 8.88365 6.56475 6.62325
51 Ar 8.85065 6.66962 11.2385
52 Ar 8.86074 11.1407 2.30886
53 Ar 8.92816 11.1525 6.64914
54 Ar 8.77721 11.1414 11.0514
55 Ar 2.28245 0.082061 2.34115
56 Ar 2.17241 0.0244306 6.61987
57 Ar 2.17619 -0.170211 10.9783
58 Ar 2.12035 4.45907 2.0986
59 Ar 2.13916 4.51434 6.63983
60 Ar 2.27357 4.47028 11.1894
61 Ar 2.19097 8.86236 2.16907
62 Ar 2.3074 8.62068 6.7749
63 Ar 2.09907 8.89646 11.0735
64 Ar 6.59883 -0.227918 2.19737
65 Ar 6.64748 -0.174821 6.70463
66 Ar 6.57548 0.0380229 11.1156
67 Ar 6.88413 4.65294 2.39996
68 Ar 6.66643 4.37155 6.627
69 Ar 6.6814 4.34787 11.1126
70 Ar 6.49989 8.94608 2.31466
71 Ar 6.60535 8.85788 6.85609
72 Ar 6.74782 8.87069 11.0758
73 Ar 11.2092 -0.0264487 2.14775
74 Ar 11.0434 0.0822273 6.60809
75 Ar 11.06 -0.00280953 11.1794
76 Ar 11.0624 4.52499 2.33181
77 Ar 11.201 4.53553 6.76643
78 Ar 11.0384 4.50004 11.092
79 Ar 11.2025 9.1333 2.39794
80 Ar 11.0635 8.81648 6.63109
81 Ar 11.1155 9.00021 11.1902
82 Ar 2.33049 2.21908 0.0647023
83 Ar 2.30609 2.32044 4.37276
84 Ar 2.1539 2.35578 8.79747
85 Ar 2.34753 6.51776 -0.129117
86 Ar 2.20621 6.64219 4.55343
87 Ar 2.20555 6.60856 9.09694
88 Ar 2.21453 11.0283 -0.00262819
89 Ar 2.10326 10.9266 4.55907
90 Ar 2.19329 11.0108 8.82897
91 Ar 6.66788 2.19957 0.0851687
92 Ar 6.67397 2.25314 4.49893
93 Ar 6.6938 2.18397 8.75725
94 Ar 6.82972 6.91964 -0.00467933
95 Ar 6.57269 6.79438 4.52729
96 Ar 6.80331 6.56128 8.92282
97 Ar 6.49782 10.8248 -0.027625
98 Ar 6.55478 11.2005 4.31422
99 Ar 6.79273 10.9162 8.971
100 Ar 11.2957 2.47193 -0.016663
101 Ar 11.031 2.37923 4.61449
102 Ar 11.1822 2.24201 8.90414
103 Ar 11.0335 6.67651 -0.0284603
104 Ar 11.1092 6.73059 4.27617
105 Ar 11.1508 6.62793 8.79626
106 Ar 11.1162 11.2009 -0.0940892
107 Ar 11.2269 11.1114 4.46799
108 Ar 10.9549 11.2419 8.84298
ITEM: TIMESTEP
84050
ITEM: NUMBER OF ATOMS
108
ITEM: BOX BOUNDS pp pp pp
0.0000000000000000e+00 1.3349999400000000e+01
0.0000000000000000e+00 1.3349999400000000e+01
0.0000000000000000e+00 1.3349999400000000e+01
ITEM: ATOMS id element xu yu zu
1 Ar 0.248487 0.056185 0.0373673
2 Ar 0.0647234 0.0681266 4.3289
3 Ar 0.00825971 0.0463174 8.84082
4 Ar 0.00516085 4.49266 -0.0404559
5 Ar -0.155546 4.52868 4.41309
6 Ar 0.117922 4.50671 8.93263
7 Ar 0.0400458 8.78708 -0.104235
8 Ar 0.0909803 8.8453 4.55745
9 Ar -0.0481457 8.91699 9.02733
10 Ar 4.42212 -0.0940867 -0.0684005
11 Ar 4.51225 0.00466943 4.40415
12 Ar 4.47406 -0.0377065 8.78354
13 Ar 4.5098 4.40813 0.0468286
14 Ar 4.59369 4.55167 4.38175
15 Ar 4.4369 4.30756 9.06353
16 Ar 4.40796 8.83731 -0.152872
17 Ar 4.52673 8.85795 4.50267
18 Ar 4.4722 8.93509 9.02576
19 Ar 8.88427 -0.0604566 0.107114
20 Ar 8.79917 -0.111933 4.44634
21 Ar 8.94368 0.0863607 8.96354
22 Ar 8.81102 4.4866 0.113915
23 Ar 8.99961 4.55091 4.24834
24 Ar 9.02939 4.31392 8.87647
25 Ar 9.00242 9.0517 -0.0928842
26 Ar 8.76692 8.86341 4.52202
27 Ar 9.07312 8.72768 8.80906
28 Ar 0.0536876 2.21616 2.36667
29 Ar 0.122973 2.29227 6.40262
30 Ar 0.0427816 2.31919 11.1732
31 Ar -0.0636396 6.61167 2.19748
32 Ar 0.068346 6.68552 6.7162
33 Ar -0.104291 6.77482 11.1474
34 Ar 0.161773 11.2312 2.24544
35 Ar 0.082118 11.2319 6.85864
36 Ar -0.14738 11.0648 11.0499
37 Ar 4.47775 2.24488 2.112
38 Ar 4.36737 2.2595 6.57093
39 Ar 4.5181 2.26047 11.0872
40 Ar 4.45409 6.72945 2.14137
41 Ar 4.58045 6.41862 7.01787
42 Ar 4.47359 6.56286 11.1621
43 Ar 4.16527 11.0494 2.24996
44 Ar 4.21801 11.0435 6.68937
45 Ar 4.46786 11.0419 11.0145
46 Ar 8.85195 2.37367 2.16742
47 Ar 8.88797 2.23625 6.67712
48 Ar 8.9707 2.25538 11.2755
49 Ar 8.91415 7.06176 2.10305
50 Ar 8.88307 6.56955 6.63934
51 Ar 8.85695 6.68674 11.2235
52 Ar 8.85636 11.1279 2.28871
53 Ar 8.91331 11.1477 6.64835
54 Ar 8.76966 11.1205 11.0567
55 Ar 2.28917 0.0894615 2.34838
56 Ar 2.1602 0.0303038 6.62358
57 Ar 2.18106 -0.168067 10.9838
58 Ar 2.12638 4.45449 2.08419
59 Ar 2.14873 4.49913 6.64785
60 Ar 2.28333 4.47576 11.2027
61 Ar 2.17697 8.86813 2.18506
62 Ar 2.3018 8.63351 6.77256
63 Ar 2.0788 8.89895 11.067
64 Ar 6.59897 -0.225936 2.18814
65 Ar 6.6377 -0.189292 6.6972
66 Ar 6.56706 0.0309346 11.1042
67 Ar 6.87439 4.65708 2.40211
68 Ar 6.63431 4.37478 6.63151
69 Ar 6.68979 4.34555 11.0999
70 Ar 6.48901 8.96248 2.31596
71 Ar 6.60151 8.86621 6.85926
72 Ar 6.76383 8.83336 11.0808
73 Ar 11.2144 -0.0247534 2.15073
74 Ar 11.0333 0.0692685 6.60243
75 Ar 11.0479 0.0308227 11.1906
76 Ar 11.0605 4.55065 2.32015
77 Ar 11.2014 4.53521 6.76413
78 Ar 11.0293 4.49334 11.0881
79 Ar 11.223 9.15902 2.39608
80 Ar 11.0436 8.80477 6.62985
81 Ar 11.1045 9.01126 11.2112
82 Ar 2.31068 2.23648 0.0603238
83 Ar 2.29945 2.31193 4.36035
84 Ar 2.16396 2.36774 8.80657
85 Ar 2.34025 6.52119 -0.141209
86 Ar 2.20873 6.64482 4.56136
87 Ar 2.21735 6.59748 9.09974
88 Ar 2.21574 11.0066 -0.00687699
89 Ar 2.10523 10.9099 4.57431
90 Ar 2.18366 11.0272 8.84213
91 Ar 6.68048 2.19481 0.08436
92 Ar 6.67539 2.25216 4.47638
93 Ar 6.69772 2.17871 8.77205
94 Ar 6.83394 6.92376 -0.0123371
95 Ar 6.55771 6.78934 4.5259
96 Ar 6.81196 6.55755 8.90423
97 Ar 6.51394 10.84 -0.034926
98 Ar 6.54891 11.1796 4.26773
99 Ar 6.78084 10.8973 8.95136
100 Ar 11.2857 2.48202 -0.017652
101 Ar 11.0359 2.36722 4.62693
102 Ar 11.1794 2.26437 8.88065
103 Ar 11.0392 6.68394 -0.0309252
104 Ar 11.1388 6.72897 4.29334
105 Ar 11.1552 6.62149 8.79188
106 Ar 11.1229 11.2097 -0.0932886
107 Ar 11.2285 11.1134 4.46865
108 Ar 10.9772 11.2308 8.83548
ITEM: TIMESTEP
84060
ITEM: NUMBER OF ATOMS
108
ITEM: BOX BOUNDS pp pp pp
0.0000000000000000e+00 1.3349999400000000e+01
0.0000000000000000e+00 1.3349999400000000e+01
0.0000000000000000e+00 1.3349999400000000e+01
ITEM: ATOMS id element xu yu zu
1 Ar 0.23079 0.0679747 0.0441605
2 Ar 0.0650219 0.0679621 4.3324
3 Ar -0.00356812 0.048569 8.84522
4 Ar 0.00392117 4.49758 -0.0273785
5 Ar -0.136248 4.53082 4.39639
6 Ar 0.113551 4.50505 8.93892
7 Ar 0.0477494 8.7702 -0.114874
8 Ar 0.0994524 8.86561 4.55968
9 Ar -0.0473988 8.9112 9.01816
10 Ar 4.40495 -0.0901392 -0.0739728
11 Ar 4.56198 0.00206905 4.39864
12 Ar 4.48019 -0.0295301 8.79488
13 Ar 4.52089 4.42982 0.0407892
14 Ar 4.59536 4.53286 4.36587
15 Ar 4.47027 4.3158 9.07055
16 Ar 4.43012 8.86843 -0.152482
17 Ar 4.52448 8.84525 4.49922
18 Ar 4.47453 8.92467 9.03384
19 Ar 8.88138 -0.0670313 0.11673
20 Ar 8.78677 -0.117874 4.45356
21 Ar 8.92562 0.0920718 8.98336
22 Ar 8.81938 4.47083 0.122053
23 Ar 9.00005 4.55961 4.25466
24 Ar 9.03926 4.33259 8.89088
25 Ar 8.98742 9.05334 -0.109913
26 Ar 8.76259 8.82632 4.5184
27 Ar 9.0732 8.71937 8.82163
28 Ar 0.0507742 2.18612 2.36376
29 Ar 0.137179 2.28134 6.40782
30 Ar 0.0436989 2.3353 11.1749
31 Ar -0.0557378 6.61947 2.20058
32 Ar 0.0716778 6.68915 6.71884
33 Ar -0.106236 6.76726 11.1464
34 Ar 0.166104 11.2248 2.26163
35 Ar 0.0729403 11.2047 6.86214
36 Ar -0.154057 11.0372 11.0542
37 Ar 4.46932 2.25196 2.1119
38 Ar 4.3602 2.28571 6.56708
39 Ar 4.51842 2.26352 11.0956
40 Ar 4.44552 6.74069 2.14262
41 Ar 4.58812 6.41867 7.03225
42 Ar 4.45419 6.57623 11.1789
43 Ar 4.1646 11.0453 2.24816
44 Ar 4.21789 11.0638 6.71117
45 Ar 4.4582 11.0482 11.0331
46 Ar 8.83274 2.35274 2.15543
47 Ar 8.88734 2.24526 6.67897
48 Ar 8.9752 2.25225 11.2509
49 Ar 8.92384 7.05427 2.09442
50 Ar 8.8822 6.57392 6.65437
51 Ar 8.86506 6.70274 11.2058
52 Ar 8.85322 11.1134 2.2674
53 Ar 8.89761 11.1416 6.64736
54 Ar 8.76392 11.1011 11.0632
55 Ar 2.29678 0.0954737 2.35389
56 Ar 2.14974 0.0365599 6.62695
57 Ar 2.18692 -0.163671 10.9902
58 Ar 2.13427 4.45101 2.07293
59 Ar 2.16047 4.48399 6.65551
60 Ar 2.29177 4.47827 11.2151
61 Ar 2.16242 8.87118 2.20142
62 Ar 2.29671 8.64816 6.77127
63 Ar 2.06172 8.90162 11.0616
64 Ar 6.59879 -0.220176 2.17652
65 Ar 6.62806 -0.202672 6.68959
66 Ar 6.56065 0.023041 11.093
67 Ar 6.86053 4.66107 2.4005
68 Ar 6.60458 4.37805 6.63649
69 Ar 6.69978 4.3444 11.0881
70 Ar 6.48001 8.97844 2.31518
71 Ar 6.59823 8.87457 6.85978
72 Ar 6.77887 8.7954 11.0847
73 Ar 11.2181 -0.0214576 2.15453
74 Ar 11.0254 0.0557471 6.59708
75 Ar 11.0379 0.0652456 11.2016
76 Ar 11.0602 4.5746 2.30398
77 Ar 11.2016 4.5336 6.75971
78 Ar 11.022 4.4874 11.0844
79 Ar 11.2438 9.18206 2.39031
80 Ar 11.0264 8.79465 6.6278
81 Ar 11.0924 9.02023 11.2293
82 Ar 2.29017 2.25324 0.0536989
83 Ar 2.29401 2.30475 4.3483
84 Ar 2.17467 2.3763 8.81704
85 Ar 2.33063 6.52834 -0.150598
86 Ar 2.21314 6.6467 4.56592
87 Ar 2.22986 6.58761 9.10065
88 Ar 2.21645 10.9862 -0.0130971
89 Ar 2.10889 10.896 4.58898
90 Ar 2.17473 11.0441 8.85682
91 Ar 6.693 2.18969 0.0826896
92 Ar 6.67752 2.2498 4.45245
93 Ar 6.70118 2.17339 8.7881
94 Ar 6.83484 6.92473 -0.0187659
95 Ar 6.545 6.78296 4.5251
96 Ar 6.82061 6.55368 8.8874
97 Ar 6.53183 10.8594 -0.0415874
98 Ar 6.54333 11.1561 4.22645
99 Ar 6.76806 10.8825 8.93001
100 Ar 11.2734 2.48812 -0.0165669
101 Ar 11.0409 2.35279 4.63572
102 Ar 11.1783 2.28558 8.85722
103 Ar 11.0461 6.69151 -0.0321856
104 Ar 11.1674 6.72914 4.31347
105 Ar 11.1599 6.61587 8.79058
106 Ar 11.1309 11.2182 -0.0899356
107 Ar 11.23 11.1174 4.47161
108 Ar 11.0014 11.2182 8.82859
ITEM: TIMESTEP
84070
ITEM: NUMBER OF ATOMS
108
ITEM: BOX BOUNDS pp pp pp
0.0000000000000000e+00 1.3349999400000000e+01
0.0000000000000000e+00 1.3349999400000000e+01
0.0000000000000000e+00 1.3349999400000000e+01
ITEM: ATOMS id element xu yu zu
1 Ar 0.210802 0.0788807 0.04961
2 Ar 0.0637102 0.0656573 4.3393
3 Ar -0.0164059 0.0522885 8.85097
4 Ar 0.0025036 4.50361 -0.0143271
5 Ar -0.114382 4.53259 4.38032
6 Ar 0.106706 4.50274 8.94558
7 Ar 0.0541612 8.75532 -0.121339
8 Ar 0.105492 8.88511 4.56161
9 Ar -0.048319 8.90444 9.00495
10 Ar 4.38739 -0.0860162 -0.0789748
11 Ar 4.60899 -0.000204215 4.3946
12 Ar 4.48497 -0.0208924 8.8071
13 Ar 4.53425 4.45217 0.0350021
14 Ar 4.59335 4.51354 4.34995
15 Ar 4.50362 4.32495 9.0751
16 Ar 4.45034 8.89828 -0.151177
17 Ar 4.51859 8.83311 4.49753
18 Ar 4.47563 8.91138 9.04088
19 Ar 8.87774 -0.0728201 0.124791
20 Ar 8.77583 -0.121238 4.4595
21 Ar 8.90648 0.0971877 9.00214
22 Ar 8.82816 4.4567 0.128036
23 Ar 8.99897 4.56891 4.26658
24 Ar 9.04579 4.35264 8.90532
25 Ar 8.97212 9.05543 -0.124261
26 Ar 8.75905 8.79139 4.51489
27 Ar 9.07142 8.71321 8.83596
28 Ar 0.0454975 2.15871 2.35819
29 Ar 0.148936 2.26999 6.41654
30 Ar 0.0448663 2.34941 11.1753
31 Ar -0.0462766 6.62973 2.2027
32 Ar 0.0731864 6.69274 6.72179
33 Ar -0.108465 6.75636 11.1445
34 Ar 0.169346 11.2171 2.27642
35 Ar 0.0607302 11.1753 6.86245
36 Ar -0.158743 11.0137 11.0595
37 Ar 4.46251 2.25896 2.11412
38 Ar 4.35394 2.31089 6.56442
39 Ar 4.51665 2.26364 11.1055
40 Ar 4.43622 6.75084 2.14413
41 Ar 4.59232 6.4222 7.04309
42 Ar 4.4379 6.59104 11.1941
43 Ar 4.16589 11.0421 2.24629
44 Ar 4.22117 11.0842 6.73201
45 Ar 4.44818 11.056 11.0525
46 Ar 8.81564 2.32772 2.14555
47 Ar 8.88575 2.25413 6.67996
48 Ar 8.97797 2.24844 11.2261
49 Ar 8.93392 7.04481 2.08804
50 Ar 8.88095 6.57756 6.66806
51 Ar 8.87518 6.71695 11.1861
52 Ar 8.85147 11.0976 2.24541
53 Ar 8.88136 11.134 6.64619
54 Ar 8.75992 11.0836 11.0705
55 Ar 2.30532 0.099727 2.35761
56 Ar 2.14129 0.042942 6.62998
57 Ar 2.19333 -0.15698 10.9975
58 Ar 2.14389 4.44873 2.06498
59 Ar 2.1741 4.46938 6.66262
60 Ar 2.29883 4.4777 11.2264
61 Ar 2.14761 8.87148 2.21784
62 Ar 2.29236 8.66439 6.77129
63 Ar 2.0483 8.90431 11.057
64 Ar 6.59833 -0.210733 2.16247
65 Ar 6.61869 -0.214718 6.68197
66 Ar 6.55629 0.0143352 11.0823
67 Ar 6.84311 4.66487 2.39505
68 Ar 6.57796 4.38094 6.64173
69 Ar 6.71142 4.34461 11.0778
70 Ar 6.47315 8.99311 2.31183
71 Ar 6.59543 8.8826 6.85729
72 Ar 6.7923 8.7579 11.0871
73 Ar 11.2201 -0.0167406 2.15923
74 Ar 11.0196 0.0417713 6.59232
75 Ar 11.0302 0.0997353 11.2122
76 Ar 11.0613 4.59645 2.28396
77 Ar 11.2017 4.53084 6.75296
78 Ar 11.0167 4.4824 11.0813
79 Ar 11.2645 9.20186 2.3807
80 Ar 11.0118 8.78632 6.62496
81 Ar 11.0795 9.02685 11.2443
82 Ar 2.26933 2.26906 0.0449733
83 Ar 2.28994 2.29897 4.33688
84 Ar 2.18602 2.38144 8.82896
85 Ar 2.31879 6.53941 -0.156851
86 Ar 2.21944 6.64771 4.56729
87 Ar 2.24284 6.579 9.09959
88 Ar 2.21634 10.9677 -0.0210269
89 Ar 2.11466 10.8855 4.60303
90 Ar 2.16659 11.0616 8.87285
91 Ar 6.70494 2.18429 0.0798945
92 Ar 6.68048 2.2463 4.42766
93 Ar 6.7042 2.16816 8.80493
94 Ar 6.83253 6.92222 -0.0236164
95 Ar 6.53463 6.77519 4.52494
96 Ar 6.82917 6.54977 8.87276
97 Ar 6.55131 10.8828 -0.0477358
98 Ar 6.53837 11.1304 4.19113
99 Ar 6.75461 10.872 8.90796
100 Ar 11.2591 2.49025 -0.0133696
101 Ar 11.0461 2.33639 4.64058
102 Ar 11.1789 2.30514 8.83401
103 Ar 11.0541 6.69915 -0.0323879
104 Ar 11.1947 6.73112 4.33617
105 Ar 11.165 6.61121 8.79237
106 Ar 11.1402 11.2265 -0.0841282
107 Ar 11.231 11.1233 4.4769
108 Ar 11.0265 11.2047 8.82251
ITEM: TIMESTEP
84080
ITEM: NUMBER OF ATOMS
108
ITEM: BOX BOUNDS pp pp pp
0.0000000000000000e+00 1.3349999400000000e+01
0.0000000000000000e+00 1.3349999400000000e+01
0.0000000000000000e+00 1.3349999400000000e+01
ITEM: ATOMS id element xu yu zu
1 Ar 0.188945 0.0885568 0.0535618
2 Ar 0.0609122 0.0610502 4.34961
3 Ar -0.030116 0.0573288 8.858
4 Ar 0.000722229 4.51059 -0.00143604
5 Ar -0.0902675 4.53358 4.36505
6 Ar 0.0977211 4.49988 8.95241
7 Ar 0.0591486 8.74261 -0.123485
8 Ar 0.108777 8.90331 4.56337
9 Ar -0.0509105 8.8966 8.98804
10 Ar 4.3696 -0.0816279 -0.0832247
11 Ar 4.65242 -0.00202172 4.39205
12 Ar 4.48827 -0.011736 8.81998
13 Ar 4.54981 4.47478 0.0296109
14 Ar 4.58758 4.49406 4.33416
15 Ar 4.53635 4.33479 9.07747
16 Ar 4.4684 8.92635 -0.148886
17 Ar 4.5091 8.82179 4.49779
18 Ar 4.47541 8.89564 9.04704
19 Ar 8.87354 -0.077795 0.130962
20 Ar 8.76632 -0.122279 4.46396
21 Ar 8.88688 0.101185 9.01946
22 Ar 8.83713 4.44452 0.131646
23 Ar 8.99652 4.57854 4.28337
24 Ar 9.04878 4.37378 8.91933
25 Ar 8.95674 9.05768 -0.135344
26 Ar 8.75641 8.75902 4.51139
27 Ar 9.06793 8.70948 8.85175
28 Ar 0.0379362 2.13454 2.35005
29 Ar 0.158014 2.25864 6.4286
30 Ar 0.0461103 2.36144 11.1744
31 Ar -0.0353436 6.64237 2.20388
32 Ar 0.0731221 6.69611 6.72496
33 Ar -0.110995 6.74227 11.1413
34 Ar 0.171768 11.2085 2.28954
35 Ar 0.0459362 11.1443 6.8597
36 Ar -0.161413 10.9947 11.0656
37 Ar 4.45739 2.26582 2.11811