ITEM: TIMESTEP
78000
ITEM: NUMBER OF ATOMS
108
ITEM: BOX BOUNDS pp pp pp
0.0000000000000000e+00 1.3349999400000000e+01
0.0000000000000000e+00 1.3349999400000000e+01
0.0000000000000000e+00 1.3349999400000000e+01
ITEM: ATOMS id element xu yu zu
1 Ar 0.0223832 0.00691244 0.0450588
2 Ar 0.10197 0.0222084 4.39449
3 Ar -0.008763 -0.0720824 8.79458
4 Ar 0.104942 4.42557 0.155356
5 Ar 0.249563 4.40943 4.66887
6 Ar -0.0290774 4.43266 8.59818
7 Ar -0.133535 8.83556 -0.0376901
8 Ar -0.0400759 8.9133 4.20772
9 Ar -0.0254356 8.81474 8.76172
10 Ar 4.30497 0.074369 -0.073515
11 Ar 4.44288 -0.219729 4.53905
12 Ar 4.34749 -0.0764639 8.65521
13 Ar 4.41744 4.50885 -0.102924
14 Ar 4.45211 4.52338 4.59637
15 Ar 4.52357 4.66825 8.9894
16 Ar 4.61758 9.12461 0.00162304
17 Ar 4.44258 8.95411 4.30318
18 Ar 4.36985 9.03317 8.94732
19 Ar 8.87344 -0.0283609 -0.0101393
20 Ar 9.11583 0.140743 4.60663
21 Ar 8.84907 0.236864 8.89039
22 Ar 8.97539 4.33561 0.00108883
23 Ar 8.8988 4.31271 4.39536
24 Ar 9.04392 4.50391 8.97811
25 Ar 8.8894 8.82677 -0.193178
26 Ar 8.91304 8.8966 4.65455
27 Ar 8.90629 9.01592 8.72996
28 Ar 0.119646 2.08614 2.1831
29 Ar -0.036065 2.1981 6.73878
30 Ar 0.0633675 2.23454 11.1473
31 Ar -0.0634839 6.65869 2.21966
32 Ar -0.0180666 6.74332 6.50047
33 Ar 0.0753379 6.53406 11.1211
34 Ar -0.139465 11.2628 2.14382
35 Ar -0.108271 10.9938 6.75517
36 Ar -0.106853 11.0935 11.279
37 Ar 4.60856 2.09869 2.28082
38 Ar 4.39942 2.28225 6.61302
39 Ar 4.48128 2.30095 11.1457
40 Ar 4.51641 6.72807 2.26638
41 Ar 4.49292 6.93152 6.65388
42 Ar 4.18556 6.8863 11.0104
43 Ar 4.50287 11.0566 2.26918
44 Ar 4.36547 11.0677 6.61596
45 Ar 4.52806 11.2298 11.1624
46 Ar 8.90432 2.09945 2.139
47 Ar 8.83523 2.38651 6.88405
48 Ar 8.97416 2.33875 11.1283
49 Ar 9.02621 6.52575 2.15085
50 Ar 8.89362 6.65072 6.57875
51 Ar 8.95233 6.52427 11.204
52 Ar 8.93199 11.0263 2.27608
53 Ar 8.82057 11.2028 6.52561
54 Ar 8.74091 11.1759 10.957
55 Ar 2.32834 -0.0349408 2.40932
56 Ar 2.09243 0.0340796 6.75224
57 Ar 2.24727 0.0581104 11.1414
58 Ar 2.42378 4.13311 2.37786
59 Ar 2.34118 4.42547 6.81327
60 Ar 2.09448 4.41885 11.0557
61 Ar 2.24824 8.92287 2.01745
62 Ar 2.09551 8.89317 6.60147
63 Ar 2.1488 9.05485 11.0288
64 Ar 6.799 -0.0353784 2.33267
65 Ar 6.59826 0.260161 6.59826
66 Ar 6.53494 0.133941 11.0084
67 Ar 6.59425 4.29974 2.35506
68 Ar 6.48872 4.60055 6.77208
69 Ar 6.74333 4.5758 11.1145
70 Ar 6.92531 8.67882 2.20948
71 Ar 6.73111 8.88905 6.65861
72 Ar 6.82907 8.63882 11.1534
73 Ar 11.0693 0.051593 2.24085
74 Ar 11.0814 -0.173533 6.79766
75 Ar 10.9975 0.11664 11.075
76 Ar 11.1937 4.42306 2.26316
77 Ar 11.1304 4.2727 6.67465
78 Ar 11.4928 4.34275 11.1845
79 Ar 10.8085 8.73267 2.34607
80 Ar 11.1398 8.86971 6.63077
81 Ar 11.0963 8.74878 11.0216
82 Ar 2.15504 2.24048 -0.00931561
83 Ar 2.29015 2.02984 4.54911
84 Ar 2.36229 2.31083 8.85353
85 Ar 2.25577 6.59727 0.126009
86 Ar 2.25471 6.67311 4.47291
87 Ar 2.14185 6.78158 8.6494
88 Ar 2.23693 11.1591 0.188471
89 Ar 2.11768 11.0855 4.3664
90 Ar 2.09229 11.3152 8.90931
91 Ar 6.7241 2.20586 -0.0753237
92 Ar 6.80141 2.22639 4.46762
93 Ar 6.55818 2.17528 8.95496
94 Ar 6.52087 6.59171 0.043167
95 Ar 6.68597 6.75417 4.44508
96 Ar 6.80362 6.89705 8.92943
97 Ar 6.89224 11.1216 0.01759
98 Ar 6.53592 11.048 4.4341
99 Ar 6.61672 11.274 8.81758
100 Ar 11.1864 2.21956 0.0797137
101 Ar 11.1801 2.16484 4.43437
102 Ar 11.0775 2.29787 8.94374
103 Ar 11.1029 6.77946 0.111308
104 Ar 11.0243 6.43051 4.5548
105 Ar 11.1417 6.73201 8.78855
106 Ar 11.0335 11.1926 0.060446
107 Ar 11.214 11.1437 4.43845
108 Ar 10.8986 11.0336 9.11802
ITEM: TIMESTEP
78010
ITEM: NUMBER OF ATOMS
108
ITEM: BOX BOUNDS pp pp pp
0.0000000000000000e+00 1.3349999400000000e+01
0.0000000000000000e+00 1.3349999400000000e+01
0.0000000000000000e+00 1.3349999400000000e+01
ITEM: ATOMS id element xu yu zu
1 Ar 0.0276646 0.00027592 0.0311717
2 Ar 0.0883788 0.0158901 4.38475
3 Ar -0.0049373 -0.0666385 8.81058
4 Ar 0.119583 4.42117 0.13101
5 Ar 0.27744 4.43468 4.64131
6 Ar -0.0162165 4.44227 8.60021
7 Ar -0.121329 8.83163 -0.038458
8 Ar -0.0170076 8.91226 4.19194
9 Ar -0.00920166 8.80781 8.77952
10 Ar 4.28889 0.0756086 -0.0559459
11 Ar 4.45308 -0.227202 4.55479
12 Ar 4.36062 -0.0851569 8.64162
13 Ar 4.41333 4.5064 -0.10902
14 Ar 4.45297 4.52788 4.61177
15 Ar 4.50921 4.67941 8.98392
16 Ar 4.61174 9.12246 0.0126584
17 Ar 4.45173 8.92671 4.31536
18 Ar 4.37773 9.04266 8.94542
19 Ar 8.86548 -0.02714 -0.0193802
20 Ar 9.11778 0.144048 4.59246
21 Ar 8.85673 0.243164 8.90519
22 Ar 8.97908 4.32839 -0.00511085
23 Ar 8.89361 4.30316 4.41068
24 Ar 9.04027 4.52778 8.96397
25 Ar 8.88954 8.82931 -0.188845
26 Ar 8.908 8.88725 4.67189
27 Ar 8.88388 9.03156 8.74319
28 Ar 0.128163 2.09469 2.17245
29 Ar -0.0351954 2.20242 6.7524
30 Ar 0.0632757 2.23567 11.1615
31 Ar -0.06013 6.65674 2.22564
32 Ar -0.0335313 6.75716 6.48677
33 Ar 0.0705234 6.55969 11.129
34 Ar -0.150066 11.241 2.15105
35 Ar -0.0967169 10.991 6.76262
36 Ar -0.11787 11.0941 11.2744
37 Ar 4.59379 2.08575 2.29128
38 Ar 4.39178 2.25739 6.61451
39 Ar 4.47778 2.29639 11.1306
40 Ar 4.51954 6.69624 2.26502
41 Ar 4.48453 6.92897 6.6383
42 Ar 4.18863 6.87749 11.011
43 Ar 4.46802 11.0348 2.25759
44 Ar 4.36826 11.0805 6.63937
45 Ar 4.53617 11.2237 11.135
46 Ar 8.9068 2.10931 2.14357
47 Ar 8.84495 2.38174 6.88638
48 Ar 8.94968 2.35503 11.1307
49 Ar 9.00453 6.50861 2.16856
50 Ar 8.90522 6.6428 6.57855
51 Ar 8.95706 6.528 11.2037
52 Ar 8.9088 11.0149 2.27204
53 Ar 8.813 11.2144 6.5094
54 Ar 8.74236 11.1929 10.9597
55 Ar 2.31111 -0.0278488 2.39242
56 Ar 2.09035 0.0214838 6.7434
57 Ar 2.24486 0.0453863 11.1528
58 Ar 2.42141 4.15145 2.39516
59 Ar 2.32919 4.41012 6.82621
60 Ar 2.08869 4.40535 11.0311
61 Ar 2.23587 8.90826 2.00361
62 Ar 2.10408 8.89766 6.58454
63 Ar 2.13461 9.07509 11.0166
64 Ar 6.77974 -0.0524234 2.33289
65 Ar 6.60474 0.279333 6.58875
66 Ar 6.51707 0.142047 11.0089
67 Ar 6.59809 4.3092 2.37282
68 Ar 6.49566 4.60981 6.77068
69 Ar 6.73327 4.57316 11.1127
70 Ar 6.92937 8.68885 2.20303
71 Ar 6.73471 8.88353 6.64969
72 Ar 6.83256 8.634 11.1477
73 Ar 11.0785 0.0505246 2.23956
74 Ar 11.0981 -0.159344 6.79141
75 Ar 11.0226 0.105611 11.0809
76 Ar 11.1818 4.42 2.25254
77 Ar 11.1311 4.27029 6.66306
78 Ar 11.4913 4.3474 11.2056
79 Ar 10.8118 8.74929 2.33418
80 Ar 11.1553 8.87296 6.62409
81 Ar 11.0915 8.74715 11.0251
82 Ar 2.14608 2.23448 -0.0130598
83 Ar 2.28625 2.02784 4.54819
84 Ar 2.37354 2.279 8.85169
85 Ar 2.27627 6.60715 0.126533
86 Ar 2.23779 6.70161 4.47782
87 Ar 2.14704 6.79377 8.67397
88 Ar 2.25582 11.175 0.199834
89 Ar 2.11072 11.1039 4.37526
90 Ar 2.11133 11.2975 8.92276
91 Ar 6.74112 2.19094 -0.0839508
92 Ar 6.81253 2.23531 4.45987
93 Ar 6.54222 2.18982 8.97388
94 Ar 6.5017 6.57392 0.0598213
95 Ar 6.70141 6.77162 4.45398
96 Ar 6.7937 6.89571 8.93051
97 Ar 6.90257 11.1304 0.0157175
98 Ar 6.5422 11.0354 4.44186
99 Ar 6.60557 11.2851 8.82071
100 Ar 11.1911 2.2264 0.0511118
101 Ar 11.1757 2.18313 4.43287
102 Ar 11.0863 2.29522 8.95122
103 Ar 11.0992 6.76514 0.107663
104 Ar 11.0282 6.43752 4.55848
105 Ar 11.1423 6.72903 8.78042
106 Ar 11.046 11.1749 0.0496425
107 Ar 11.2121 11.115 4.44576
108 Ar 10.9065 11.0393 9.13004
ITEM: TIMESTEP
78020
ITEM: NUMBER OF ATOMS
108
ITEM: BOX BOUNDS pp pp pp
0.0000000000000000e+00 1.3349999400000000e+01
0.0000000000000000e+00 1.3349999400000000e+01
0.0000000000000000e+00 1.3349999400000000e+01
ITEM: ATOMS id element xu yu zu
1 Ar 0.0324652 -0.00661243 0.0158429
2 Ar 0.0715723 0.00872947 4.37739
3 Ar -0.00355441 -0.0594433 8.83041
4 Ar 0.133723 4.41781 0.107171
5 Ar 0.302556 4.45833 4.6107
6 Ar -0.00300679 4.4537 8.60672
7 Ar -0.1079 8.8287 -0.0382767
8 Ar 0.00554343 8.9109 4.17748
9 Ar 0.00620079 8.80276 8.80042
10 Ar 4.27629 0.0759853 -0.0362087
11 Ar 4.46291 -0.231309 4.56932
12 Ar 4.37451 -0.091869 8.63135
13 Ar 4.40885 4.50188 -0.114163
14 Ar 4.45386 4.53199 4.62553
15 Ar 4.49414 4.6896 8.97851
16 Ar 4.60511 9.11726 0.0222373
17 Ar 4.45971 8.89848 4.32876
18 Ar 4.3867 9.05242 8.94243
19 Ar 8.85828 -0.0250508 -0.0297098
20 Ar 9.11629 0.14579 4.57687
21 Ar 8.86389 0.245793 8.91981
22 Ar 8.98216 4.32307 -0.0103712
23 Ar 8.88829 4.2948 4.42684
24 Ar 9.03472 4.55241 8.94952
25 Ar 8.89102 8.83283 -0.182028
26 Ar 8.90342 8.87828 4.68561
27 Ar 8.86104 9.04527 8.75727
28 Ar 0.13487 2.10533 2.16417
29 Ar -0.0339771 2.20464 6.76434
30 Ar 0.0632701 2.23376 11.1736
31 Ar -0.0555051 6.65394 2.23279
32 Ar -0.04938 6.77004 6.47403
33 Ar 0.0658441 6.58825 11.1365
34 Ar -0.159349 11.2167 2.1585
35 Ar -0.0844673 10.9901 6.76845
36 Ar -0.128445 11.096 11.268
37 Ar 4.57821 2.07258 2.30145
38 Ar 4.38591 2.23245 6.61652
39 Ar 4.47235 2.29254 11.1153
40 Ar 4.52098 6.66347 2.26371
41 Ar 4.47528 6.92502 6.62371
42 Ar 4.1933 6.86734 11.014
43 Ar 4.43462 11.0153 2.24479
44 Ar 4.37081 11.0912 6.66311
45 Ar 4.54365 11.2165 11.1078
46 Ar 8.90922 2.12113 2.14909
47 Ar 8.8541 2.37655 6.88581
48 Ar 8.92442 2.37056 11.1331
49 Ar 8.97907 6.49002 2.18742
50 Ar 8.91625 6.63291 6.58114
51 Ar 8.9639 6.53181 11.2029
52 Ar 8.8855 11.0056 2.26946
53 Ar 8.80531 11.2267 6.49576
54 Ar 8.74305 11.2099 10.9653
55 Ar 2.2943 -0.0206071 2.37223
56 Ar 2.08903 0.00738474 6.7322
57 Ar 2.24151 0.0318736 11.1628
58 Ar 2.41805 4.17327 2.41102
59 Ar 2.31778 4.39656 6.83687
60 Ar 2.08514 4.393 11.0063
61 Ar 2.22274 8.8925 1.99275
62 Ar 2.11437 8.90451 6.56698
63 Ar 2.12016 9.09471 11.0071
64 Ar 6.75947 -0.070252 2.33252
65 Ar 6.61341 0.29423 6.58031
66 Ar 6.50115 0.147689 11.0116
67 Ar 6.60265 4.3211 2.38776
68 Ar 6.50592 4.6177 6.76929
69 Ar 6.72168 4.56954 11.1105
70 Ar 6.93192 8.70169 2.19631
71 Ar 6.73609 8.87999 6.64177
72 Ar 6.83278 8.63375 11.1422
73 Ar 11.088 0.0484507 2.23794
74 Ar 11.1158 -0.143193 6.78525
75 Ar 11.0496 0.09328 11.0878
76 Ar 11.171 4.41534 2.24225
77 Ar 11.1312 4.2704 6.6503
78 Ar 11.4851 4.35482 11.226
79 Ar 10.8189 8.76804 2.32199
80 Ar 11.1701 8.87708 6.61721
81 Ar 11.087 8.74627 11.0298
82 Ar 2.14012 2.22844 -0.0165601
83 Ar 2.28246 2.02845 4.54706
84 Ar 2.38318 2.24573 8.85181
85 Ar 2.29634 6.61766 0.125591
86 Ar 2.22165 6.73035 4.48072
87 Ar 2.15297 6.80426 8.70117
88 Ar 2.27352 11.1913 0.20732
89 Ar 2.10407 11.1209 4.3853
90 Ar 2.13135 11.2761 8.93662
91 Ar 6.75643 2.17667 -0.0912487
92 Ar 6.82153 2.24392 4.45276
93 Ar 6.52641 2.20811 8.99098
94 Ar 6.48513 6.55635 0.0756801
95 Ar 6.7172 6.78641 4.46265
96 Ar 6.78241 6.89064 8.92974
97 Ar 6.9095 11.1395 0.0136024
98 Ar 6.55209 11.0233 4.44965
99 Ar 6.59551 11.2947 8.82289
100 Ar 11.1958 2.23248 0.0220194
101 Ar 11.1732 2.20294 4.43181
102 Ar 11.0976 2.29127 8.95862
103 Ar 11.0966 6.74768 0.101253
104 Ar 11.0341 6.44649 4.55999
105 Ar 11.1427 6.72417 8.7731
106 Ar 11.0575 11.1557 0.0372894
107 Ar 11.209 11.0865 4.45296
108 Ar 10.9192 11.0475 9.13823
ITEM: TIMESTEP
78030
ITEM: NUMBER OF ATOMS
108
ITEM: BOX BOUNDS pp pp pp
0.0000000000000000e+00 1.3349999400000000e+01
0.0000000000000000e+00 1.3349999400000000e+01
0.0000000000000000e+00 1.3349999400000000e+01
ITEM: ATOMS id element xu yu zu
1 Ar 0.036574 -0.0138446 -0.000356902
2 Ar 0.0516902 0.00102224 4.3724
3 Ar -0.00412623 -0.0508769 8.85367
4 Ar 0.147411 4.41585 0.0843174
5 Ar 0.324429 4.47995 4.57771
6 Ar 0.0100139 4.46687 8.61766
7 Ar -0.0935179 8.82672 -0.0372019
8 Ar 0.0272131 8.90938 4.1646
9 Ar 0.0203388 8.79969 8.82377
10 Ar 4.2676 0.0755666 -0.014838
11 Ar 4.47209 -0.232237 4.58211
12 Ar 4.38883 -0.0962941 8.62465
13 Ar 4.40387 4.49488 -0.118355
14 Ar 4.45466 4.53559 4.63769
15 Ar 4.47856 4.69864 8.97298
16 Ar 4.59795 9.10902 0.0298992
17 Ar 4.46645 8.8702 4.3428
18 Ar 4.39672 9.06185 8.9384
19 Ar 8.85234 -0.0220731 -0.0408303
20 Ar 9.11168 0.145957 4.55996
21 Ar 8.87043 0.244922 8.93413
22 Ar 8.98442 4.31989 -0.0145554
23 Ar 8.88312 4.288 4.44377
24 Ar 9.02741 4.57717 8.93495
25 Ar 8.89368 8.83712 -0.172926
26 Ar 8.89976 8.86983 4.69534
27 Ar 8.83833 9.05715 8.77187
28 Ar 0.139461 2.11797 2.15828
29 Ar -0.032316 2.20492 6.7743
30 Ar 0.0633125 2.22892 11.1831
31 Ar -0.0498672 6.65007 2.24062
32 Ar -0.0650313 6.78177 6.46273
33 Ar 0.0614708 6.61902 11.1436
34 Ar -0.167155 11.1903 2.1658
35 Ar -0.0716496 10.9911 6.77288
36 Ar -0.138303 11.0989 11.2597
37 Ar 4.56213 2.05968 2.31129
38 Ar 4.38184 2.20803 6.61887
39 Ar 4.46479 2.28944 11.1005
40 Ar 4.52065 6.63028 2.26293
41 Ar 4.46522 6.91958 6.61058
42 Ar 4.19946 6.85633 11.0193
43 Ar 4.4033 10.9984 2.23193
44 Ar 4.37318 11.0996 6.68645
45 Ar 4.55043 11.2083 11.0814
46 Ar 8.91159 2.13445 2.15525
47 Ar 8.8626 2.37092 6.88271
48 Ar 8.89906 2.38498 11.1349
49 Ar 8.95066 6.47063 2.20713
50 Ar 8.92666 6.62136 6.5866
51 Ar 8.97249 6.53558 11.2015
52 Ar 8.86271 10.9985 2.26842
53 Ar 8.79778 11.2396 6.48508
54 Ar 8.74302 11.2268 10.9736
55 Ar 2.278 -0.0133557 2.34951
56 Ar 2.08825 -0.00820498 6.719
57 Ar 2.23744 0.0175981 11.171
58 Ar 2.41398 4.19821 2.42494
59 Ar 2.30714 4.38497 6.84511
60 Ar 2.08372 4.38212 10.9816
61 Ar 2.20916 8.87596 1.98508
62 Ar 2.12614 8.91353 6.54942
63 Ar 2.10609 9.11325 11.0005
64 Ar 6.7384 -0.0885299 2.33158
65 Ar 6.62448 0.304785 6.57326
66 Ar 6.48728 0.150685 11.0165
67 Ar 6.60765 4.33497 2.39968
68 Ar 6.51921 4.624 6.76801
69 Ar 6.7087 4.56528 11.1079
70 Ar 6.93263 8.7169 2.1894
71 Ar 6.73513 8.87841 6.63534
72 Ar 6.82976 8.63798 11.1372
73 Ar 11.0977 0.0454272 2.23577
74 Ar 11.1342 -0.125399 6.77908
75 Ar 11.0779 0.0800766 11.0958
76 Ar 11.1615 4.40925 2.23232
77 Ar 11.131 4.273 6.63676
78 Ar 11.4743 4.36507 11.2448
79 Ar 10.8295 8.78813 2.30957
80 Ar 11.1839 8.88213 6.61059
81 Ar 11.0829 8.74617 11.0355
82 Ar 2.13746 2.2226 -0.0197364
83 Ar 2.27865 2.03144 4.54569
84 Ar 2.39098 2.21126 8.85384
85 Ar 2.31568 6.62849 0.122939
86 Ar 2.20677 6.75888 4.4815
87 Ar 2.1596 6.81301 8.73022
88 Ar 2.2894 11.2073 0.210651
89 Ar 2.09805 11.1365 4.39623
90 Ar 2.15186 11.2519 8.9504
91 Ar 6.76947 2.16333 -0.096802
92 Ar 6.82807 2.25193 4.44632
93 Ar 6.51123 2.22984 9.00562
94 Ar 6.47164 6.53938 0.0903219
95 Ar 6.73303 6.79823 4.47084
96 Ar 6.76982 6.88197 8.92708
97 Ar 6.91252 11.1486 0.0110823
98 Ar 6.56487 11.0118 4.45714
99 Ar 6.58717 11.3028 8.82401
100 Ar 11.2004 2.23746 -0.00691994
101 Ar 11.1726 2.22388 4.43106
102 Ar 11.1109 2.28647 8.96609
103 Ar 11.0951 6.72749 0.0926264
104 Ar 11.0418 6.45724 4.55891
105 Ar 11.1429 6.71774 8.76672
106 Ar 11.0676 11.1353 0.0237386
107 Ar 11.2048 11.0588 4.45998
108 Ar 10.9361 11.0578 9.14232
ITEM: TIMESTEP
78040
ITEM: NUMBER OF ATOMS
108
ITEM: BOX BOUNDS pp pp pp
0.0000000000000000e+00 1.3349999400000000e+01
0.0000000000000000e+00 1.3349999400000000e+01
0.0000000000000000e+00 1.3349999400000000e+01
ITEM: ATOMS id element xu yu zu
1 Ar 0.0397999 -0.0214735 -0.0168201
2 Ar 0.0289839 -0.0069565 4.3697
3 Ar -0.00610611 -0.0413417 8.87988
4 Ar 0.160707 4.41561 0.0628244
5 Ar 0.342598 4.49921 4.54312
6 Ar 0.0223207 4.48164 8.63283
7 Ar -0.0784804 8.82566 -0.035294
8 Ar 0.0476127 8.90785 4.15357
9 Ar 0.0327869 8.79872 8.8488
10 Ar 4.2632 0.0744444 0.00757666
11 Ar 4.48043 -0.230264 4.59273
12 Ar 4.40325 -0.0981704 8.62168
13 Ar 4.39827 4.48506 -0.121592
14 Ar 4.45525 4.53856 4.64829
15 Ar 4.46271 4.70633 8.9671
16 Ar 4.59045 9.09777 0.0352748
17 Ar 4.47197 8.84269 4.35688
18 Ar 4.40771 9.0703 8.93341
19 Ar 8.84814 -0.0181998 -0.0524192
20 Ar 9.10432 0.144594 4.54183
21 Ar 8.87623 0.240809 8.948
22 Ar 8.98565 4.31902 -0.0175554
23 Ar 8.87836 4.28312 4.46133
24 Ar 9.01849 4.60136 8.92048
25 Ar 8.89735 8.8419 -0.16179
26 Ar 8.8974 8.86202 4.70087
27 Ar 8.81628 9.06732 8.7867
28 Ar 0.141713 2.1325 2.15475
29 Ar -0.0301154 2.2035 6.78208
30 Ar 0.0633644 2.22143 11.1899
31 Ar -0.0435018 6.645 2.2486
32 Ar -0.0798783 6.79216 6.45335
33 Ar 0.0575489 6.65125 11.1501
34 Ar -0.173351 11.1624 2.1726
35 Ar -0.058408 10.994 6.77612
36 Ar -0.14716 11.1027 11.2497
37 Ar 4.54586 2.04757 2.32082
38 Ar 4.37958 2.18471 6.62137
39 Ar 4.45495 2.28703 11.0867
40 Ar 4.51851 6.59723 2.26308
41 Ar 4.45442 6.91255 6.59939
42 Ar 4.20705 6.84489 11.0268
43 Ar 4.37465 10.9841 2.2201
44 Ar 4.37544 11.1054 6.70861
45 Ar 4.55644 11.1992 11.0567
46 Ar 8.91389 2.14882 2.16178
47 Ar 8.87043 2.36479 6.87746
48 Ar 8.87424 2.39801 11.1356
49 Ar 8.92019 6.45111 2.22732
50 Ar 8.93641 6.60858 6.59484
51 Ar 8.98237 6.53927 11.1995
52 Ar 8.84106 10.9941 2.26892
53 Ar 8.79069 11.2531 6.47769
54 Ar 8.74242 11.2433 10.9843
55 Ar 2.26214 -0.00623072 2.32505
56 Ar 2.08777 -0.0252131 6.70424
57 Ar 2.23291 0.00258872 11.1774
58 Ar 2.40952 4.22588 2.43646
59 Ar 2.2974 4.37541 6.85081
60 Ar 2.08431 4.37297 10.9572
61 Ar 2.19548 8.85907 1.9807
62 Ar 2.13915 8.92451 6.53253
63 Ar 2.09305 9.13028 10.9976
64 Ar 6.71677 -0.106914 2.33007
65 Ar 6.63806 0.310992 6.56785
66 Ar 6.47555 0.150975 11.0233
67 Ar 6.61283 4.35027 2.40847
68 Ar 6.5352 4.62851 6.76692
69 Ar 6.69452 4.56074 11.1052
70 Ar 6.93118 8.73398 2.18242
71 Ar 6.73177 8.87875 6.63084
72 Ar 6.82362 8.64647 11.1331
73 Ar 11.1072 0.0415254 2.23285
74 Ar 11.1529 -0.106277 6.77282
75 Ar 11.1068 0.0663893 11.1047
76 Ar 11.1534 4.40194 2.22279
77 Ar 11.131 4.27803 6.62291
78 Ar 11.4594 4.37811 11.2616
79 Ar 10.8431 8.80874 2.29695
80 Ar 11.1964 8.88813 6.60471
81 Ar 11.0791 8.74692 11.0421
82 Ar 2.1383 2.21718 -0.0225274
83 Ar 2.27468 2.03658 4.54407
84 Ar 2.39672 2.17591 8.85764
85 Ar 2.33399 6.6393 0.118362
86 Ar 2.1936 6.78672 4.48013
87 Ar 2.16687 6.82008 8.76035
88 Ar 2.30288 11.2225 0.209586
89 Ar 2.09293 11.1506 4.40771
90 Ar 2.17234 11.226 8.9636
91 Ar 6.7797 2.15121 -0.100226
92 Ar 6.83186 2.25906 4.44058
93 Ar 6.49716 2.2546 9.01727
94 Ar 6.46159 6.5234 0.103355
95 Ar 6.74861 6.8068 4.47833
96 Ar 6.75602 6.86996 8.92257
97 Ar 6.91126 11.1574 0.00802498
98 Ar 6.57977 11.0011 4.46403
99 Ar 6.58114 11.3092 8.82401
100 Ar 11.2048 2.24102 -0.035084
101 Ar 11.1741 2.24551 4.43049
102 Ar 11.126 2.28124 8.97374
103 Ar 11.0945 6.70505 0.0823978
104 Ar 11.0509 6.46961 4.55484
105 Ar 11.1431 6.71014 8.7614
106 Ar 11.0761 11.1142 0.00934607
107 Ar 11.1992 11.0323 4.46676
108 Ar 10.9568 11.0699 9.14216
ITEM: TIMESTEP
78050
ITEM: NUMBER OF ATOMS
108
ITEM: BOX BOUNDS pp pp pp
0.0000000000000000e+00 1.3349999400000000e+01
0.0000000000000000e+00 1.3349999400000000e+01
0.0000000000000000e+00 1.3349999400000000e+01
ITEM: ATOMS id element xu yu zu
1 Ar 0.0419849 -0.0295089 -0.0329251
2 Ar 0.00380131 -0.014966 4.3691
3 Ar -0.0089319 -0.0312388 8.90843
4 Ar 0.173669 4.4173 0.0429515
5 Ar 0.356637 4.51583 4.50776
6 Ar 0.0334307 4.49778 8.65191
7 Ar -0.0631015 8.82547 -0.0326165
8 Ar 0.0663335 8.90647 4.1447
9 Ar 0.0431485 8.79989 8.87469
10 Ar 4.26338 0.0727166 0.0304176
11 Ar 4.48778 -0.225734 4.60091
12 Ar 4.41745 -0.0973163 8.62255
13 Ar 4.39197 4.47222 -0.12386
14 Ar 4.45558 4.54076 4.65743
15 Ar 4.44681 4.71252 8.96065
16 Ar 4.58279 9.08359 0.0381108
17 Ar 4.47636 8.8167 4.37033
18 Ar 4.41958 9.0771 8.92756
19 Ar 8.84603 -0.0134427 -0.064139
20 Ar 9.09463 0.141784 4.5226
21 Ar 8.88127 0.233784 8.96132
22 Ar 8.98564 4.32055 -0.0192987
23 Ar 8.87423 4.28043 4.47938
24 Ar 9.00811 4.62425 8.90635
25 Ar 8.90182 8.84692 -0.148905
26 Ar 8.89667 8.85492 4.70218
27 Ar 8.79537 9.07591 8.80153
28 Ar 0.141487 2.14874 2.15349
29 Ar -0.0272749 2.20068 6.78762
30 Ar 0.0634104 2.21174 11.1936
31 Ar -0.0367099 6.63863 2.2562
32 Ar -0.0933137 6.80106 6.44628
33 Ar 0.0541945 6.68416 11.1563
34 Ar -0.177836 11.1335 2.17855
35 Ar -0.044908 10.9987 6.77843
36 Ar -0.154726 11.1071 11.2382
37 Ar 4.52965 2.03675 2.33004
38 Ar 4.37907 2.16301 6.62389
39 Ar 4.44281 2.28522 11.0743
40 Ar 4.51459 6.56489 2.26449
41 Ar 4.44296 6.90383 6.59058
42 Ar 4.21601 6.83339 11.0364
43 Ar 4.34913 10.9724 2.21026
44 Ar 4.37767 11.1083 6.72885
45 Ar 4.56161 11.1894 11.0343
46 Ar 8.91612 2.16383 2.16839
47 Ar 8.87768 2.35811 6.87052
48 Ar 8.85054 2.40942 11.1347
49 Ar 8.88859 6.43209 2.24762
50 Ar 8.9455 6.59512 6.60562
51 Ar 8.993 6.54286 11.197
52 Ar 8.82113 10.9926 2.27094
53 Ar 8.78438 11.2672 6.4739
54 Ar 8.74149 11.2593 10.9971
55 Ar 2.24656 0.000638317 2.29971
56 Ar 2.08743 -0.0434902 6.68843
57 Ar 2.22824 -0.0131163 11.1819
58 Ar 2.405 4.2558 2.44509
59 Ar 2.2886 4.36788 6.85393
60 Ar 2.08671 4.36573 10.9336
61 Ar 2.18209 8.84228 1.97965
62 Ar 2.1531 8.93717 6.51696
63 Ar 2.08167 9.14535 10.9986
64 Ar 6.69477 -0.125062 2.328
65 Ar 6.65417 0.312904 6.56429
66 Ar 6.46597 0.148634 11.032
67 Ar 6.6179 4.36641 2.41409
68 Ar 6.55347 4.63106 6.76604
69 Ar 6.67933 4.55628 11.1024
70 Ar 6.92727 8.7524 2.17548
71 Ar 6.72606 8.88087 6.6286
72 Ar 6.81453 8.65889 11.1301
73 Ar 11.1164 0.0368247 2.22896
74 Ar 11.1716 -0.0861451 6.76639
75 Ar 11.1357 0.0525636 11.1147
76 Ar 11.147 4.39368 2.2137
77 Ar 11.1315 4.2854 6.60922
78 Ar 11.4406 4.39382 11.2758
79 Ar 10.8592 8.82913 2.28413
80 Ar 11.2072 8.89505 6.60001
81 Ar 11.0756 8.74863 11.0492
82 Ar 2.1427 2.21234 -0.0248908
83 Ar 2.27043 2.04359 4.54217
84 Ar 2.40017 2.14001 8.86294
85 Ar 2.35101 6.6498 0.111683
86 Ar 2.1825 6.81336 4.47664
87 Ar 2.17472 6.82557 8.79087
88 Ar 2.31344 11.2363 0.203944
89 Ar 2.08897 11.1633 4.41934
90 Ar 2.19229 11.1991 8.97566
91 Ar 6.7867 2.14057 -0.101182
92 Ar 6.83263 2.26508 4.43552
93 Ar 6.48463 2.2819 9.02551
94 Ar 6.45529 6.50871 0.114438
95 Ar 6.76362 6.81193 4.48499
96 Ar 6.74114 6.85499 8.91643
97 Ar 6.90542 11.1658 0.00434003
98 Ar 6.596 10.9912 4.47009
99 Ar 6.57798 11.314 8.82284
100 Ar 11.2087 2.24293 -0.0618976
101 Ar 11.1777 2.26733 4.42996
102 Ar 11.1423 2.27603 8.98164
103 Ar 11.0948 6.68091 0.0712161
104 Ar 11.0611 6.48343 4.5475
105 Ar 11.1436 6.70175 8.75728
106 Ar 11.0828 11.0927 -0.00554099
107 Ar 11.1925 11.0073 4.47323
108 Ar 10.9805 11.0833 9.1377
ITEM: TIMESTEP
78060
ITEM: NUMBER OF ATOMS
108
ITEM: BOX BOUNDS pp pp pp
0.0000000000000000e+00 1.3349999400000000e+01
0.0000000000000000e+00 1.3349999400000000e+01
0.0000000000000000e+00 1.3349999400000000e+01
ITEM: ATOMS id element xu yu zu
1 Ar 0.0430147 -0.037917 -0.0480592
2 Ar -0.0234308 -0.0228102 4.37041
3 Ar -0.0120606 -0.020951 8.93863
4 Ar 0.186337 4.42104 0.0248366
5 Ar 0.366157 4.52965 4.47253
6 Ar 0.0429253 4.51502 8.67449
7 Ar -0.0477029 8.82614 -0.0292341
8 Ar 0.0829544 8.9054 4.13831
9 Ar 0.051081 8.80323 8.90059
10 Ar 4.26835 0.0704661 0.0530678
11 Ar 4.49408 -0.21903 4.60646
12 Ar 4.4312 -0.0936653 8.62728
13 Ar 4.38497 4.45629 -0.125127
14 Ar 4.45566 4.542 4.66517
15 Ar 4.4311 4.71704 8.95343
16 Ar 4.57505 9.06664 0.0382885
17 Ar 4.47979 8.79294 4.38257
18 Ar 4.43223 9.08159 8.92099
19 Ar 8.8463 -0.00783363 -0.0756464
20 Ar 9.08307 0.137649 4.50236
21 Ar 8.88553 0.224224 8.97395
22 Ar 8.9842 4.32446 -0.0197568
23 Ar 8.87089 4.28012 4.49772
24 Ar 8.99644 4.64514 8.89286
25 Ar 8.90684 8.8519 -0.134577
26 Ar 8.8978 8.84858 4.69936
27 Ar 8.77609 9.08305 8.81616
28 Ar 0.138747 2.16651 2.15432
29 Ar -0.0236913 2.19682 6.79094
30 Ar 0.063478 2.20039 11.1943
31 Ar -0.0297945 6.63095 2.26287
32 Ar -0.10476 6.80831 6.44182
33 Ar 0.0514921 6.71695 11.1621
34 Ar -0.180532 11.1043 2.18337
35 Ar -0.0313407 11.0051 6.78001
36 Ar -0.160713 11.1118 11.2252
37 Ar 4.51374 2.02771 2.339
38 Ar 4.38023 2.14339 6.62629
39 Ar 4.42843 2.28384 11.0639
40 Ar 4.50895 6.53382 2.26738
41 Ar 4.43097 6.8933 6.58453
42 Ar 4.22637 6.82216 11.0481
43 Ar 4.32711 10.9632 2.20319
44 Ar 4.37996 11.1086 6.74648
45 Ar 4.5659 11.179 11.015
46 Ar 8.91826 2.17908 2.17485
47 Ar 8.88445 2.35084 6.86231
48 Ar 8.82847 2.41905 11.1318
49 Ar 8.85679 6.41421 2.26764
50 Ar 8.95397 6.58164 6.61854
51 Ar 9.00381 6.54644 11.1939
52 Ar 8.80351 10.994 2.27437
53 Ar 8.77918 11.2815 6.47389
54 Ar 8.74055 11.2744 11.0114
55 Ar 2.23104 0.00712865 2.27432
56 Ar 2.0871 -0.0627986 6.67209
57 Ar 2.22379 -0.0294634 11.1847
58 Ar 2.40077 4.28745 2.4504
59 Ar 2.28073 4.36231 6.85445
60 Ar 2.09074 4.36049 10.9111
61 Ar 2.16945 8.82605 1.98185
62 Ar 2.16769 8.95121 6.50334
63 Ar 2.07255 9.15805 11.0042
64 Ar 6.67262 -0.142646 2.3254
65 Ar 6.67268 0.310632 6.56274
66 Ar 6.4585 0.143862 11.0421
67 Ar 6.62264 4.38271 2.41661
68 Ar 6.57354 4.63151 6.76534
69 Ar 6.6633 4.55224 11.0997
70 Ar 6.92061 8.77159 2.16871
71 Ar 6.71815 8.8846 6.62883
72 Ar 6.80278 8.67483 11.1284
73 Ar 11.1253 0.0314061 2.22396
74 Ar 11.1898 -0.0653103 6.75972
75 Ar 11.1637 0.0388995 11.1255
76 Ar 11.1422 4.38476 2.20504
77 Ar 11.133 4.29498 6.59618
78 Ar 11.4186 4.41193 11.2868
79 Ar 10.8775 8.84863 2.27112
80 Ar 11.2162 8.90283 6.59694
81 Ar 11.0721 8.75143 11.0567
82 Ar 2.15055 2.2082 -0.0268025
83 Ar 2.26575 2.05219 4.53996
84 Ar 2.40112 2.10397 8.86944
85 Ar 2.36652 6.65971 0.102783
86 Ar 2.17375 6.83826 4.47114
87 Ar 2.18308 6.82969 8.82112
88 Ar 2.32068 11.248 0.193635
89 Ar 2.08634 11.1746 4.43068
90 Ar 2.21126 11.1723 8.98603
91 Ar 6.79012 2.13165 -0.0993945
92 Ar 6.83019 2.26981 4.43112
93 Ar 6.474 2.31113 9.03004
94 Ar 6.4529 6.49559 0.123293
95 Ar 6.77771 6.81354 4.49077
96 Ar 6.72532 6.83754 8.90893
97 Ar 6.89488 11.1734 -1.29238e-05
98 Ar 6.61281 10.9822 4.47513
99 Ar 6.57814 11.3171 8.82053
100 Ar 11.2122 2.24306 -0.0868573
101 Ar 11.1832 2.28881 4.42933
102 Ar 11.1594 2.2712 8.9898
103 Ar 11.0961 6.65568 0.0597375
104 Ar 11.0719 6.49853 4.53668
105 Ar 11.1444 6.69298 8.75447
106 Ar 11.0874 11.0712 -0.0205956
107 Ar 11.1845 10.9844 4.47931
108 Ar 11.0064 11.0974 9.12897
ITEM: TIMESTEP
78070
ITEM: NUMBER OF ATOMS
108
ITEM: BOX BOUNDS pp pp pp
0.0000000000000000e+00 1.3349999400000000e+01
0.0000000000000000e+00 1.3349999400000000e+01
0.0000000000000000e+00 1.3349999400000000e+01
ITEM: ATOMS id element xu yu zu
1 Ar 0.0428277 -0.0466234 -0.0616417
2 Ar -0.0522252 -0.0303426 4.37336
3 Ar -0.0149947 -0.0108345 8.96971
4 Ar 0.198724 4.42684 0.00850131
5 Ar 0.370828 4.54054 4.43836
6 Ar 0.0504655 4.53305 8.70004
7 Ar -0.0326031 8.82763 -0.025211
8 Ar 0.0970571 8.90478 4.13473
9 Ar 0.0563226 8.80871 8.92568
10 Ar 4.27817 0.0677414 0.0749413
11 Ar 4.4993 -0.210552 4.60933
12 Ar 4.44432 -0.087292 8.63577
13 Ar 4.37732 4.43732 -0.12534
14 Ar 4.4555 4.54213 4.67161
15 Ar 4.41579 4.71976 8.94527
16 Ar 4.56729 9.04715 0.0358322
17 Ar 4.48247 8.77198 4.39304
18 Ar 4.44556 9.08314 8.91386
19 Ar 8.84912 -0.00142147 -0.0866005
20 Ar 9.07008 0.132328 4.48123
21 Ar 8.88907 0.21254 8.98579
22 Ar 8.98115 4.33065 -0.0189492
23 Ar 8.86846 4.28228 4.51613
24 Ar 8.98367 4.66329 8.88033
25 Ar 8.91213 8.85657 -0.119111
26 Ar 8.90086 8.843 4.69265
27 Ar 8.75885 9.08882 8.83042
28 Ar 0.133549 2.18557 2.15704
29 Ar -0.0192603 2.19231 6.79214
30 Ar 0.0636478 2.18802 11.192
31 Ar -0.0230464 6.62206 2.26811
32 Ar -0.113701 6.81378 6.44022
33 Ar 0.0494927 6.74884 11.1675
34 Ar -0.18138 11.0754 2.1868
35 Ar -0.0179235 11.0132 6.7811
36 Ar -0.164845 11.1165 11.2111
37 Ar 4.49833 2.02089 2.34774
38 Ar 4.38294 2.12622 6.6285
39 Ar 4.41204 2.28269 11.0556
40 Ar 4.50173 6.50462 2.27183
41 Ar 4.41856 6.8809 6.58155
42 Ar 4.23813 6.81142 11.0617
43 Ar 4.3088 10.9565 2.19942
44 Ar 4.38243 11.1064 6.76093
45 Ar 4.56927 11.1682 10.9993
46 Ar 8.92029 2.19422 2.18097
47 Ar 8.89092 2.34292 6.85328
48 Ar 8.80842 2.42683 11.1267
49 Ar 8.82575 6.39805 2.28699
50 Ar 8.96186 6.56886 6.63309
51 Ar 9.0142 6.55011 11.1903
52 Ar 8.78868 10.9985 2.27903
53 Ar 8.77542 11.2959 6.47779
54 Ar 8.73993 11.2884 11.0268
55 Ar 2.21531 0.0131223 2.24964
56 Ar 2.08671 -0.0828081 6.65575
57 Ar 2.21993 -0.0463783 11.1857
58 Ar 2.39713 4.32028 2.45198
59 Ar 2.27365 4.35861 6.85242
60 Ar 2.09622 4.35727 10.89
61 Ar 2.158 8.81083 1.98716
62 Ar 2.1826 8.96629 6.49222
63 Ar 2.06622 9.16803 11.0147
64 Ar 6.65051 -0.159352 2.32228
65 Ar 6.69337 0.304347 6.56329
66 Ar 6.45308 0.13697 11.0534
67 Ar 6.62676 4.39846 2.41616
68 Ar 6.5949 4.62974 6.76472
69 Ar 6.64663 4.54893 11.0973
70 Ar 6.91099 8.791 2.16221
71 Ar 6.70826 8.88972 6.63163
72 Ar 6.78868 8.69382 11.1281
73 Ar 11.1335 0.0253491 2.2177
74 Ar 11.2073 -0.0440717 6.75277
75 Ar 11.1901 0.0256502 11.137
76 Ar 11.139 4.37548 2.19684
77 Ar 11.1357 4.30661 6.58424
78 Ar 11.3939 4.43209 11.2943
79 Ar 10.8974 8.86662 2.25791
80 Ar 11.2231 8.91137 6.59586
81 Ar 11.0688 8.75542 11.0643
82 Ar 2.16161 2.20484 -0.0282541
83 Ar 2.26055 2.06211 4.53744
84 Ar 2.39939 2.06821 8.87673
85 Ar 2.38031 6.66881 0.0916125
86 Ar 2.16755 6.86088 4.46385
87 Ar 2.19184 6.83267 8.85056
88 Ar 2.32436 11.2571 0.178692
89 Ar 2.0852 11.1846 4.44122
90 Ar 2.22885 11.1465 8.99419
91 Ar 6.78973 2.12465 -0.0946726
92 Ar 6.82443 2.27315 4.42734
93 Ar 6.46554 2.34165 9.03073
94 Ar 6.45444 6.48427 0.129717
95 Ar 6.79056 6.81165 4.49572
96 Ar 6.70869 6.81818 8.90045
97 Ar 6.87963 11.1803 -0.00502058
98 Ar 6.6295 10.9743 4.47904
99 Ar 6.58192 11.3187 8.81714
100 Ar 11.2148 2.24136 -0.10955
101 Ar 11.1906 2.30948 4.42851
102 Ar 11.1767 2.26711 8.99822
103 Ar 11.0982 6.62999 0.048603
104 Ar 11.0829 6.51476 4.52229
105 Ar 11.1458 6.68423 8.75309
106 Ar 11.09 11.05 -0.0355193
107 Ar 11.1755 10.964 4.48491
108 Ar 11.0337 11.112 9.11607
ITEM: TIMESTEP
78080
ITEM: NUMBER OF ATOMS
108
ITEM: BOX BOUNDS pp pp pp
0.0000000000000000e+00 1.3349999400000000e+01
0.0000000000000000e+00 1.3349999400000000e+01
0.0000000000000000e+00 1.3349999400000000e+01
ITEM: ATOMS id element xu yu zu
1 Ar 0.0414197 -0.0555183 -0.0731469
2 Ar -0.0820514 -0.0374681 4.37768
3 Ar -0.0173029 -0.00121615 9.00082
4 Ar 0.210809 4.4346 -0.006135
5 Ar 0.370403 4.54845 4.40616
6 Ar 0.0557984 4.55153 8.72798
7 Ar -0.0181082 8.82991 -0.0206082
8 Ar 0.108246 8.9047 4.13429
9 Ar 0.0587174 8.81628 8.9492
10 Ar 4.29278 0.0645427 0.0955106
11 Ar 4.50348 -0.200695 4.60957
12 Ar 4.45674 -0.0784225 8.64786
13 Ar 4.36914 4.41554 -0.12443
14 Ar 4.45515 4.54098 4.67682
15 Ar 4.40108 4.72055 8.93604
16 Ar 4.55952 9.02543 0.0309068
17 Ar 4.48467 8.75431 4.40132
18 Ar 4.45946 9.08126 8.90635
19 Ar 8.85453 0.00573398 -0.096671
20 Ar 9.05609 0.125974 4.45933
21 Ar 8.892 0.199155 8.99673
22 Ar 8.97633 4.33892 -0.0169464
23 Ar 8.86696 4.2869 4.53435
24 Ar 8.97 4.67806 8.86914
25 Ar 8.91743 8.86067 -0.1028
26 Ar 8.90583 8.83816 4.6824
27 Ar 8.74399 9.09325 8.8442
28 Ar 0.126042 2.20566 2.16136
29 Ar -0.0138815 2.18753 6.79139
30 Ar 0.0640537 2.17534 11.1869
31 Ar -0.016729 6.61213 2.27141
32 Ar -0.119711 6.8174 6.44159
33 Ar 0.0482127 6.77911 11.1726
34 Ar -0.180339 11.0476 2.18866
35 Ar -0.00489831 11.0226 6.78186
36 Ar -0.166872 11.1208 11.1961
37 Ar 4.48356 2.01664 2.35627
38 Ar 4.38707 2.11177 6.63046
39 Ar 4.39398 2.28151 11.0497