ITEM: TIMESTEP
54000
ITEM: NUMBER OF ATOMS
108
ITEM: BOX BOUNDS pp pp pp
0.0000000000000000e+00 1.3349999400000000e+01
0.0000000000000000e+00 1.3349999400000000e+01
0.0000000000000000e+00 1.3349999400000000e+01
ITEM: ATOMS id element xu yu zu
1 Ar -0.112859 -0.02964 -0.155623
2 Ar 0.074616 -0.132564 4.38272
3 Ar 0.130972 -0.124395 8.88396
4 Ar 0.00293166 4.4712 -0.0552747
5 Ar -0.119965 4.43398 4.37981
6 Ar 0.079553 4.61778 8.98527
7 Ar -0.00478235 8.80677 -0.00877415
8 Ar 0.0918229 8.77467 4.43914
9 Ar -0.0484748 8.98016 8.84957
10 Ar 4.448 0.131524 -0.0493278
11 Ar 4.50795 -0.0295781 4.44598
12 Ar 4.53353 -0.0325054 8.96253
13 Ar 4.27055 4.44072 0.122765
14 Ar 4.51547 4.46275 4.50969
15 Ar 4.33605 4.58629 8.93925
16 Ar 4.34071 8.90317 0.059741
17 Ar 4.53563 8.98089 4.38236
18 Ar 4.35179 8.89892 9.02197
19 Ar 8.87571 0.0383853 0.00338385
20 Ar 8.95221 -0.0374606 4.3671
21 Ar 8.83335 0.291339 8.96194
22 Ar 8.82268 4.44748 -0.00756204
23 Ar 8.80563 4.31891 4.46042
24 Ar 8.83651 4.34762 9.18089
25 Ar 8.92176 8.82242 0.0931798
26 Ar 8.9424 8.89889 4.52642
27 Ar 8.9302 8.7966 8.72716
28 Ar 0.0362257 2.21158 2.1342
29 Ar 0.0422036 2.13948 6.76258
30 Ar 0.0363255 2.18887 11.1
31 Ar -0.00601105 6.77373 2.19982
32 Ar 0.0378406 6.59574 6.34761
33 Ar -0.1385 6.93911 11.2135
34 Ar 0.0145335 11.1512 2.08734
35 Ar -0.0716055 10.8648 6.31051
36 Ar 0.0598242 11.2481 11.1447
37 Ar 4.33661 2.16111 2.2869
38 Ar 4.43035 2.07259 6.82095
39 Ar 4.48489 2.27464 11.0487
40 Ar 4.50485 6.64141 1.99213
41 Ar 4.41074 6.76236 6.85933
42 Ar 4.43363 6.71146 11.1526
43 Ar 4.54849 11.2206 2.08057
44 Ar 4.37182 11.185 6.55685
45 Ar 4.4744 11.0972 11.2042
46 Ar 8.7648 2.08929 2.12309
47 Ar 8.95061 2.28206 6.68358
48 Ar 8.90262 2.01861 11.258
49 Ar 8.79969 6.7158 2.25319
50 Ar 8.81116 6.63111 6.71925
51 Ar 9.06906 6.75118 11.0214
52 Ar 8.82698 11.2561 2.39272
53 Ar 8.90624 11.2618 6.5029
54 Ar 8.97228 11.2042 10.8914
55 Ar 2.10361 0.0667136 2.08619
56 Ar 2.137 0.0235694 6.76985
57 Ar 2.31779 -0.0903286 11.079
58 Ar 2.2089 4.32539 2.41623
59 Ar 1.98021 4.36912 6.65915
60 Ar 2.22381 4.41492 11.1346
61 Ar 2.20459 9.12893 2.2285
62 Ar 2.11018 8.92524 6.82488
63 Ar 2.30904 8.93627 11.1078
64 Ar 6.66244 -0.13661 2.2316
65 Ar 6.81568 0.092049 6.76365
66 Ar 6.69246 -0.0503644 11.2001
67 Ar 6.65137 4.4074 2.36091
68 Ar 6.72894 4.50576 6.67189
69 Ar 6.46921 4.51538 11.4786
70 Ar 6.7111 8.96095 2.30621
71 Ar 6.44097 8.87047 6.73006
72 Ar 6.71235 8.9756 11.1452
73 Ar 11.1077 0.186696 2.21202
74 Ar 11.1746 -0.057581 6.6087
75 Ar 11.1873 -0.141893 11.0118
76 Ar 11.1596 4.45683 2.00367
77 Ar 11.134 4.23633 6.76866
78 Ar 11.1876 4.36724 10.9956
79 Ar 10.9854 8.90814 2.47052
80 Ar 11.159 8.75495 6.55
81 Ar 11.1222 9.11818 11.166
82 Ar 2.12724 2.28229 0.0273796
83 Ar 2.17502 2.06647 4.46687
84 Ar 2.27296 2.27111 8.92764
85 Ar 2.26177 6.61945 -0.022365
86 Ar 2.49412 6.67339 4.44548
87 Ar 2.03535 6.83467 9.04365
88 Ar 2.174 10.954 -0.0642626
89 Ar 2.40147 11.1892 4.3226
90 Ar 2.3101 11.0824 8.95393
91 Ar 6.50753 2.30217 0.0489516
92 Ar 6.92957 2.21163 4.47225
93 Ar 6.74648 2.31536 9.14487
94 Ar 6.87508 6.73729 0.0312731
95 Ar 6.64435 6.60831 4.50717
96 Ar 6.84708 6.55841 9.01496
97 Ar 6.72158 11.186 -0.0899549
98 Ar 6.61782 11.1257 4.56906
99 Ar 6.65361 11.1238 8.72234
100 Ar 11.0874 2.10994 -0.0917923
101 Ar 11.257 2.19686 4.49252
102 Ar 11.3691 2.14194 8.96307
103 Ar 11.1522 6.83085 0.0816355
104 Ar 11.026 6.50074 4.39376
105 Ar 11.175 6.65415 8.79221
106 Ar 10.9695 11.2406 0.0164203
107 Ar 11.0571 11.1875 4.30989
108 Ar 11.3005 11.1624 8.73244
ITEM: TIMESTEP
54010
ITEM: NUMBER OF ATOMS
108
ITEM: BOX BOUNDS pp pp pp
0.0000000000000000e+00 1.3349999400000000e+01
0.0000000000000000e+00 1.3349999400000000e+01
0.0000000000000000e+00 1.3349999400000000e+01
ITEM: ATOMS id element xu yu zu
1 Ar -0.128546 -0.0302932 -0.138497
2 Ar 0.0887378 -0.128048 4.38434
3 Ar 0.121628 -0.143798 8.85552
4 Ar -0.00427156 4.47653 -0.0612528
5 Ar -0.12256 4.43797 4.38958
6 Ar 0.0766586 4.60764 8.97079
7 Ar -0.0090591 8.80284 0.00337241
8 Ar 0.0667761 8.76845 4.44301
9 Ar -0.0651405 8.99923 8.8565
10 Ar 4.46272 0.134435 -0.0349136
11 Ar 4.48548 -0.0426504 4.45011
12 Ar 4.54364 -0.0451111 8.95543
13 Ar 4.27866 4.44785 0.125668
14 Ar 4.53264 4.45184 4.52348
15 Ar 4.31176 4.60656 8.9313
16 Ar 4.36741 8.88399 0.0486059
17 Ar 4.5075 9.01087 4.39072
18 Ar 4.35605 8.90834 9.01519
19 Ar 8.86517 0.0443491 0.0118942
20 Ar 8.95901 -0.055053 4.3384
21 Ar 8.82589 0.299941 8.97434
22 Ar 8.82933 4.44287 -0.00017222
23 Ar 8.83713 4.3168 4.47905
24 Ar 8.84706 4.36627 9.15908
25 Ar 8.9251 8.86096 0.0980832
26 Ar 8.93313 8.88862 4.51843
27 Ar 8.93406 8.78495 8.72085
28 Ar 0.0293001 2.21784 2.13286
29 Ar 0.0489281 2.1352 6.76298
30 Ar 0.0574737 2.19742 11.1128
31 Ar -0.0149294 6.75542 2.2149
32 Ar 0.0504192 6.60082 6.35587
33 Ar -0.151991 6.94196 11.2265
34 Ar 0.00411105 11.1949 2.07467
35 Ar -0.0633554 10.8669 6.31056
36 Ar 0.0549779 11.2358 11.133
37 Ar 4.34354 2.16103 2.2898
38 Ar 4.43894 2.06394 6.84768
39 Ar 4.47406 2.28593 11.0422
40 Ar 4.5354 6.64732 1.99246
41 Ar 4.42414 6.75981 6.87905
42 Ar 4.44701 6.6955 11.1454
43 Ar 4.55644 11.2279 2.06709
44 Ar 4.36282 11.1861 6.58905
45 Ar 4.49602 11.0926 11.2089
46 Ar 8.76118 2.10015 2.11896
47 Ar 8.94456 2.27911 6.69467
48 Ar 8.89729 2.02864 11.2556
49 Ar 8.77228 6.70959 2.26056
50 Ar 8.81726 6.63529 6.69788
51 Ar 9.07625 6.72871 10.9983
52 Ar 8.82768 11.2423 2.40152
53 Ar 8.89287 11.2766 6.50026
54 Ar 8.99975 11.1935 10.8845
55 Ar 2.116 0.0643248 2.09369
56 Ar 2.13522 0.0271143 6.76243
57 Ar 2.3027 -0.0971549 11.0759
58 Ar 2.22002 4.30151 2.4061
59 Ar 1.96516 4.34885 6.68629
60 Ar 2.24379 4.42941 11.1577
61 Ar 2.19933 9.14234 2.22652
62 Ar 2.09097 8.9181 6.81648
63 Ar 2.31003 8.93949 11.0927
64 Ar 6.6809 -0.143535 2.22016
65 Ar 6.808 0.0912199 6.77736
66 Ar 6.6869 -0.0502697 11.1756
67 Ar 6.66134 4.4097 2.36891
68 Ar 6.71445 4.52686 6.67068
69 Ar 6.46532 4.51561 11.4812
70 Ar 6.7266 8.95778 2.29224
71 Ar 6.46997 8.86521 6.71357
72 Ar 6.73298 8.96827 11.1434
73 Ar 11.0991 0.193651 2.19102
74 Ar 11.1658 -0.0507917 6.57997
75 Ar 11.1958 -0.140019 11.022
76 Ar 11.1514 4.44161 1.99661
77 Ar 11.1218 4.23424 6.76026
78 Ar 11.1791 4.36146 10.995
79 Ar 10.9978 8.9064 2.47683
80 Ar 11.1597 8.74189 6.54864
81 Ar 11.138 9.105 11.1513
82 Ar 2.12269 2.27 0.0105535
83 Ar 2.17474 2.07325 4.47995
84 Ar 2.26624 2.28031 8.92657
85 Ar 2.28372 6.62676 -0.041323
86 Ar 2.49845 6.69331 4.41966
87 Ar 2.04522 6.85432 9.04375
88 Ar 2.17941 10.9546 -0.0507549
89 Ar 2.39514 11.1934 4.31702
90 Ar 2.29573 11.0755 8.94674
91 Ar 6.52409 2.31168 0.0414593
92 Ar 6.93893 2.20157 4.47252
93 Ar 6.73011 2.33424 9.12881
94 Ar 6.85273 6.74699 0.0421951
95 Ar 6.62865 6.60969 4.52478
96 Ar 6.83737 6.57068 9.00769
97 Ar 6.73372 11.1998 -0.0597272
98 Ar 6.60814 11.1118 4.59601
99 Ar 6.65787 11.106 8.71453
100 Ar 11.0734 2.09801 -0.0881619
101 Ar 11.2437 2.18232 4.5063
102 Ar 11.3709 2.14344 8.94124
103 Ar 11.1377 6.83361 0.091808
104 Ar 11.0278 6.48866 4.39438
105 Ar 11.1672 6.66427 8.81393
106 Ar 10.9672 11.2327 0.0135052
107 Ar 11.0507 11.1855 4.3061
108 Ar 11.2916 11.1424 8.76088
ITEM: TIMESTEP
54020
ITEM: NUMBER OF ATOMS
108
ITEM: BOX BOUNDS pp pp pp
0.0000000000000000e+00 1.3349999400000000e+01
0.0000000000000000e+00 1.3349999400000000e+01
0.0000000000000000e+00 1.3349999400000000e+01
ITEM: ATOMS id element xu yu zu
1 Ar -0.141715 -0.0302021 -0.1195
2 Ar 0.101389 -0.122347 4.38621
3 Ar 0.111237 -0.162192 8.82719
4 Ar -0.011638 4.48268 -0.0673783
5 Ar -0.123675 4.4406 4.3983
6 Ar 0.0727682 4.59648 8.95624
7 Ar -0.0131547 8.80317 0.0174021
8 Ar 0.0420447 8.76284 4.44299
9 Ar -0.0820716 9.01733 8.86417
10 Ar 4.47611 0.13596 -0.0206742
11 Ar 4.46375 -0.0532209 4.45435
12 Ar 4.55309 -0.0580122 8.94833
13 Ar 4.28792 4.45315 0.128114
14 Ar 4.54805 4.43877 4.53844
15 Ar 4.289 4.62535 8.92225
16 Ar 4.39687 8.86518 0.0367571
17 Ar 4.47796 9.0385 4.39879
18 Ar 4.36361 8.91784 9.00688
19 Ar 8.85411 0.0477029 0.0203251
20 Ar 8.96494 -0.0686116 4.31242
21 Ar 8.8213 0.30387 8.98448
22 Ar 8.83797 4.4383 0.00664065
23 Ar 8.87236 4.31738 4.49621
24 Ar 8.85886 4.38434 9.13505
25 Ar 8.92876 8.90248 0.101634
26 Ar 8.92088 8.87796 4.51187
27 Ar 8.93796 8.77714 8.71557
28 Ar 0.0204919 2.22443 2.13259
29 Ar 0.0544273 2.13108 6.76202
30 Ar 0.0790166 2.20558 11.1256
31 Ar -0.022094 6.73535 2.23058
32 Ar 0.0622785 6.60599 6.36866
33 Ar -0.164307 6.9405 11.2369
34 Ar -0.00855101 11.2374 2.06333
35 Ar -0.0543064 10.874 6.31455
36 Ar 0.0500114 11.2197 11.1213
37 Ar 4.35286 2.16113 2.29331
38 Ar 4.44882 2.05842 6.87189
39 Ar 4.46166 2.29624 11.0373
40 Ar 4.56545 6.65438 1.99737
41 Ar 4.43606 6.7558 6.89696
42 Ar 4.46105 6.68027 11.1387
43 Ar 4.56238 11.2341 2.05437
44 Ar 4.3536 11.1868 6.62394
45 Ar 4.51804 11.0886 11.2132
46 Ar 8.75953 2.11401 2.1156
47 Ar 8.9386 2.27503 6.70711
48 Ar 8.89218 2.04318 11.2532
49 Ar 8.74693 6.70146 2.26935
50 Ar 8.8253 6.63832 6.67544
51 Ar 9.08306 6.70653 10.9788
52 Ar 8.82886 11.2247 2.40591
53 Ar 8.88077 11.2885 6.50157
54 Ar 9.02477 11.182 10.8783
55 Ar 2.13019 0.0598315 2.10088
56 Ar 2.13547 0.0280892 6.75363
57 Ar 2.28763 -0.101774 11.0742
58 Ar 2.23053 4.28071 2.39502
59 Ar 1.95507 4.33022 6.71203
60 Ar 2.26286 4.44507 11.1805
61 Ar 2.19486 9.15094 2.22516
62 Ar 2.07505 8.91026 6.80512
63 Ar 2.30823 8.94247 11.0797
64 Ar 6.69823 -0.146736 2.20925
65 Ar 6.79844 0.0907129 6.78939
66 Ar 6.68061 -0.0498938 11.1503
67 Ar 6.67084 4.41205 2.37438
68 Ar 6.69825 4.54506 6.67191
69 Ar 6.46396 4.51623 11.479
70 Ar 6.74116 8.95491 2.27771
71 Ar 6.50175 8.85996 6.69718
72 Ar 6.75416 8.96014 11.1409
73 Ar 11.0917 0.198029 2.17056
74 Ar 11.1573 -0.0433929 6.55271
75 Ar 11.2031 -0.13591 11.0317
76 Ar 11.1416 4.42539 1.99192
77 Ar 11.1103 4.23593 6.75212
78 Ar 11.1705 4.35693 10.9975
79 Ar 11.0125 8.90452 2.47917
80 Ar 11.1596 8.72995 6.54773
81 Ar 11.1529 9.09101 11.1358
82 Ar 2.11974 2.25662 -0.00777892
83 Ar 2.17513 2.08147 4.49388
84 Ar 2.25859 2.28837 8.92628
85 Ar 2.30285 6.63533 -0.0591913
86 Ar 2.50124 6.71351 4.3934
87 Ar 2.05607 6.87119 9.04219
88 Ar 2.18548 10.9594 -0.0376431
89 Ar 2.38628 11.1975 4.31265
90 Ar 2.28071 11.0697 8.9382
91 Ar 6.54168 2.31939 0.0348433
92 Ar 6.94222 2.18918 4.4733
93 Ar 6.71113 2.3542 9.11031
94 Ar 6.82779 6.75695 0.0516453
95 Ar 6.61266 6.61355 4.54123
96 Ar 6.82426 6.58394 9.00077
97 Ar 6.74687 11.2113 -0.0291043
98 Ar 6.5995 11.0988 4.62153
99 Ar 6.66312 11.0879 8.70893
100 Ar 11.0607 2.08896 -0.0847578
101 Ar 11.2291 2.168 4.51833
102 Ar 11.3699 2.14452 8.91919
103 Ar 11.1213 6.83411 0.101162
104 Ar 11.029 6.47686 4.39533
105 Ar 11.1602 6.67406 8.83514
106 Ar 10.9655 11.2229 0.0120217
107 Ar 11.0471 11.1832 4.30355
108 Ar 11.2794 11.1222 8.78808
ITEM: TIMESTEP
54030
ITEM: NUMBER OF ATOMS
108
ITEM: BOX BOUNDS pp pp pp
0.0000000000000000e+00 1.3349999400000000e+01
0.0000000000000000e+00 1.3349999400000000e+01
0.0000000000000000e+00 1.3349999400000000e+01
ITEM: ATOMS id element xu yu zu
1 Ar -0.152074 -0.0293712 -0.0993256
2 Ar 0.112246 -0.115417 4.38824
3 Ar 0.0996676 -0.179417 8.79934
4 Ar -0.0190283 4.48961 -0.0734956
5 Ar -0.123212 4.44163 4.40595
6 Ar 0.0678114 4.58474 8.94228
7 Ar -0.0170086 8.8076 0.033295
8 Ar 0.0179132 8.75804 4.43912
9 Ar -0.0986512 9.03382 8.87223
10 Ar 4.4881 0.136297 -0.00712499
11 Ar 4.44324 -0.0612289 4.45867
12 Ar 4.56147 -0.0711371 8.94164
13 Ar 4.29833 4.45647 0.130332
14 Ar 4.56112 4.42371 4.55435
15 Ar 4.26788 4.64219 8.91233
16 Ar 4.42849 8.84731 0.0242485
17 Ar 4.44764 9.06349 4.40653
18 Ar 4.37442 8.92737 8.99717
19 Ar 8.8427 0.0484541 0.0281665
20 Ar 8.96968 -0.0778263 4.28955
21 Ar 8.81957 0.303182 8.99231
22 Ar 8.84823 4.43416 0.0126428
23 Ar 8.91023 4.32022 4.51169
24 Ar 8.87153 4.40144 9.10879
25 Ar 8.93267 8.94589 0.103732
26 Ar 8.90609 8.86715 4.50673
27 Ar 8.94183 8.77321 8.71131
28 Ar 0.0100989 2.23118 2.13342
29 Ar 0.0583584 2.12705 6.7596
30 Ar 0.100232 2.21321 11.1377
31 Ar -0.0273282 6.71365 2.24642
32 Ar 0.0733437 6.61102 6.38581
33 Ar -0.175044 6.93462 11.2445
34 Ar -0.0232177 11.2781 2.05359
35 Ar -0.0448689 10.886 6.32231
36 Ar 0.0450978 11.2004 11.1103
37 Ar 4.36462 2.16131 2.29741
38 Ar 4.45971 2.05614 6.89322
39 Ar 4.44795 2.3053 11.0339
40 Ar 4.59433 6.66245 2.00705
41 Ar 4.44616 6.75084 6.91243
42 Ar 4.4756 6.66632 11.1323
43 Ar 4.56625 11.2389 2.04275
44 Ar 4.34419 11.1869 6.66085
45 Ar 4.54011 11.0853 11.2171
46 Ar 8.75988 2.13073 2.11325
47 Ar 8.93253 2.26983 6.72072
48 Ar 8.88722 2.06205 11.2507
49 Ar 8.72413 6.69162 2.27936
50 Ar 8.83516 6.64008 6.65239
51 Ar 9.08911 6.68508 10.9636
52 Ar 8.83053 11.2035 2.40587
53 Ar 8.87036 11.2975 6.50676
54 Ar 9.04681 11.1697 10.8729
55 Ar 2.14603 0.0537107 2.10766
56 Ar 2.13791 0.0265402 6.74368
57 Ar 2.27289 -0.104381 11.0739
58 Ar 2.24034 4.26332 2.38321
59 Ar 1.95027 4.31378 6.73565
60 Ar 2.28053 4.46175 11.2025
61 Ar 2.19103 9.15469 2.22436
62 Ar 2.06265 8.90179 6.79098
63 Ar 2.30388 8.94537 11.0694
64 Ar 6.71407 -0.146081 2.19952
65 Ar 6.78721 0.090495 6.79952
66 Ar 6.67384 -0.0493423 11.1246
67 Ar 6.67985 4.41432 2.37757
68 Ar 6.68089 4.56003 6.67561
69 Ar 6.46543 4.51725 11.4721
70 Ar 6.75421 8.9526 2.26323
71 Ar 6.53569 8.85468 6.68105
72 Ar 6.77579 8.95142 11.1378
73 Ar 11.0856 0.199747 2.15118
74 Ar 11.149 -0.0359199 6.52755
75 Ar 11.209 -0.129393 11.0408
76 Ar 11.1305 4.40838 1.98978
77 Ar 11.0997 4.24145 6.74442
78 Ar 11.1619 4.35338 11.003
79 Ar 11.0292 8.90237 2.47758
80 Ar 11.1587 8.71939 6.54727
81 Ar 11.1663 9.0762 11.1202
82 Ar 2.11858 2.24223 -0.0270342
83 Ar 2.17633 2.0912 4.50838
84 Ar 2.25009 2.29492 8.92702
85 Ar 2.31889 6.64526 -0.0754533
86 Ar 2.50265 6.73341 4.36701
87 Ar 2.0673 6.88499 9.03906
88 Ar 2.19223 10.9683 -0.0254681
89 Ar 2.3749 11.2014 4.30962
90 Ar 2.26527 11.0651 8.92848
91 Ar 6.5599 2.32517 0.029098
92 Ar 6.93978 2.17482 4.47463
93 Ar 6.69006 2.37521 9.08974
94 Ar 6.80133 6.76695 0.0591098
95 Ar 6.59643 6.61993 4.55614
96 Ar 6.80814 6.59801 8.9942
97 Ar 6.76088 11.2202 0.000868789
98 Ar 6.59183 11.0869 4.64505
99 Ar 6.6695 11.0696 8.70567
100 Ar 11.0496 2.08308 -0.0819236
101 Ar 11.2135 2.15416 4.52825
102 Ar 11.3664 2.14502 8.89755
103 Ar 11.103 6.83246 0.109718
104 Ar 11.0296 6.46563 4.39647
105 Ar 11.1544 6.68329 8.85535
106 Ar 10.9647 11.2113 0.0118496
107 Ar 11.0464 11.1805 4.30242
108 Ar 11.2638 11.1026 8.81318
ITEM: TIMESTEP
54040
ITEM: NUMBER OF ATOMS
108
ITEM: BOX BOUNDS pp pp pp
0.0000000000000000e+00 1.3349999400000000e+01
0.0000000000000000e+00 1.3349999400000000e+01
0.0000000000000000e+00 1.3349999400000000e+01
ITEM: ATOMS id element xu yu zu
1 Ar -0.159408 -0.0277536 -0.0787493
2 Ar 0.121049 -0.107196 4.39033
3 Ar 0.0868067 -0.195358 8.77232
4 Ar -0.0263104 4.49728 -0.0794191
5 Ar -0.121094 4.44093 4.41258
6 Ar 0.0616877 4.57282 8.9295
7 Ar -0.0206272 8.81583 0.0509
8 Ar -0.00533815 8.75432 4.43167
9 Ar -0.11423 9.04808 8.88029
10 Ar 4.49867 0.135648 0.00525923
11 Ar 4.42441 -0.066705 4.46308
12 Ar 4.56836 -0.0843654 8.93575
13 Ar 4.30991 4.45775 0.132547
14 Ar 4.57138 4.40687 4.5709
15 Ar 4.2485 4.65662 8.90183
16 Ar 4.46164 8.83092 0.0111411
17 Ar 4.4172 9.08565 4.41395
18 Ar 4.38826 8.93687 8.98626
19 Ar 8.83122 0.0467382 0.0349153
20 Ar 8.97303 -0.0826416 4.27004
21 Ar 8.8206 0.298048 8.99787
22 Ar 8.85968 4.43089 0.0176103
23 Ar 8.94947 4.32475 4.5253
24 Ar 8.8847 4.41728 9.08031
25 Ar 8.93675 8.99004 0.104295
26 Ar 8.88933 8.85642 4.50287
27 Ar 8.94561 8.77302 8.70805
28 Ar -0.00151614 2.23792 2.13533
29 Ar 0.060456 2.12304 6.75564
30 Ar 0.120401 2.22025 11.1487
31 Ar -0.0305403 6.69047 2.26196
32 Ar 0.0835356 6.6157 6.407
33 Ar -0.183842 6.92438 11.2495
34 Ar -0.0395716 11.3162 2.04578
35 Ar -0.0354049 10.9024 6.33359
36 Ar 0.0403657 11.1786 11.1004
37 Ar 4.37879 2.16153 2.30209
38 Ar 4.47128 2.05717 6.9114
39 Ar 4.43321 2.31287 11.0321
40 Ar 4.6214 6.6713 2.0216
41 Ar 4.45418 6.7455 6.9249
42 Ar 4.49048 6.65418 11.1262
43 Ar 4.56807 11.242 2.03257
44 Ar 4.33468 11.1863 6.69899
45 Ar 4.56188 11.0827 11.2205
46 Ar 8.76224 2.15004 2.11213
47 Ar 8.92621 2.2636 6.73528
48 Ar 8.88229 2.0849 11.248
49 Ar 8.70428 6.68031 2.29033
50 Ar 8.84664 6.64048 6.62925
51 Ar 9.09397 6.66473 10.9531
52 Ar 8.8327 11.1789 2.4016
53 Ar 8.86198 11.3037 6.51567
54 Ar 9.06537 11.1571 10.8686
55 Ar 2.16332 0.0464671 2.11394
56 Ar 2.14265 0.0226066 6.73285
57 Ar 2.25874 -0.105233 11.0748
58 Ar 2.24934 4.24952 2.37083
59 Ar 1.95096 4.30003 6.75651
60 Ar 2.29634 4.47924 11.223
61 Ar 2.1877 9.1537 2.22399
62 Ar 2.05388 8.8928 6.77429
63 Ar 2.2973 8.94834 11.062
64 Ar 6.72812 -0.141535 2.19158
65 Ar 6.77456 0.0904739 6.80761
66 Ar 6.66685 -0.0486512 11.099
67 Ar 6.68831 4.41634 2.3788
68 Ar 6.66298 4.57152 6.68172
69 Ar 6.47 4.51863 11.4606
70 Ar 6.76526 8.95106 2.24932
71 Ar 6.57112 8.84931 6.66542
72 Ar 6.7978 8.9423 11.1343
73 Ar 11.0806 0.19878 2.13338
74 Ar 11.141 -0.0288667 6.50507
75 Ar 11.2138 -0.120415 11.0491
76 Ar 11.1182 4.39081 1.99034
77 Ar 11.0903 4.25076 6.73732
78 Ar 11.1536 4.35058 11.0112
79 Ar 11.0474 8.89982 2.47217
80 Ar 11.157 8.71047 6.54719
81 Ar 11.1778 9.06054 11.1051
82 Ar 2.11935 2.22696 -0.0465533
83 Ar 2.17845 2.10246 4.52313
84 Ar 2.24086 2.29963 8.929
85 Ar 2.33172 6.65666 -0.089624
86 Ar 2.50279 6.75244 4.34081
87 Ar 2.07843 6.89555 9.03449
88 Ar 2.1997 10.9808 -0.014663
89 Ar 2.36098 11.205 4.30802
90 Ar 2.24965 11.0616 8.91782
91 Ar 6.57832 2.32893 0.0241664
92 Ar 6.93208 2.15896 4.47657
93 Ar 6.6675 2.39716 9.06755
94 Ar 6.77446 6.77671 0.0641388
95 Ar 6.57996 6.62872 4.56916
96 Ar 6.78954 6.61271 8.98801
97 Ar 6.77552 11.2265 0.0291957
98 Ar 6.58503 11.0766 4.6661
99 Ar 6.67711 11.0514 8.70487
100 Ar 11.0401 2.08051 -0.0799673
101 Ar 11.1972 2.14108 4.53571
102 Ar 11.3604 2.14487 8.87687
103 Ar 11.0827 6.82888 0.117496
104 Ar 11.0298 6.45533 4.39766
105 Ar 11.1502 6.69174 8.87405
106 Ar 10.9647 11.1982 0.0128055
107 Ar 11.0489 11.1774 4.3028
108 Ar 11.2448 11.0844 8.83539
ITEM: TIMESTEP
54050
ITEM: NUMBER OF ATOMS
108
ITEM: BOX BOUNDS pp pp pp
0.0000000000000000e+00 1.3349999400000000e+01
0.0000000000000000e+00 1.3349999400000000e+01
0.0000000000000000e+00 1.3349999400000000e+01
ITEM: ATOMS id element xu yu zu
1 Ar -0.163574 -0.0252478 -0.0585932
2 Ar 0.127599 -0.0976101 4.39238
3 Ar 0.0725769 -0.209921 8.74646
4 Ar -0.0333615 4.50557 -0.0849376
5 Ar -0.11728 4.43839 4.41833
6 Ar 0.054301 4.56103 8.91839
7 Ar -0.0240692 8.82738 0.0699459
8 Ar -0.0274251 8.7519 4.42112
9 Ar -0.128179 9.05955 8.88787
10 Ar 4.50789 0.134204 0.0160555
11 Ar 4.40763 -0.0697618 4.46759
12 Ar 4.57339 -0.0975206 8.93101
13 Ar 4.32266 4.45708 0.134949
14 Ar 4.57847 4.3885 4.58778
15 Ar 4.23092 4.66819 8.89112
16 Ar 4.49562 8.81656 -0.00248858
17 Ar 4.38727 9.10487 4.42114
18 Ar 4.40482 8.94626 8.97446
19 Ar 8.81995 0.0428082 0.0401042
20 Ar 8.97482 -0.0832629 4.25398
21 Ar 8.82423 0.288733 9.00127
22 Ar 8.87186 4.42884 0.0213406
23 Ar 8.98877 4.33034 4.53687
24 Ar 8.89803 4.43163 9.0497
25 Ar 8.94088 9.03375 0.103243
26 Ar 8.87123 8.84604 4.50009
27 Ar 8.94923 8.77629 8.70576
28 Ar -0.0139482 2.24451 2.13827
29 Ar 0.060553 2.11905 6.7501
30 Ar 0.138826 2.22666 11.1582
31 Ar -0.0317143 6.666 2.27676
32 Ar 0.0927608 6.61985 6.4318
33 Ar -0.190402 6.90995 11.252
34 Ar -0.0572199 11.3509 2.04021
35 Ar -0.026223 10.9228 6.34807
36 Ar 0.0358926 11.1549 11.0921
37 Ar 4.39526 2.16174 2.3073
38 Ar 4.4831 2.06146 6.92618
39 Ar 4.4178 2.31879 11.0318
40 Ar 4.64604 6.68071 2.041
41 Ar 4.45991 6.74037 6.93381
42 Ar 4.50546 6.64431 11.1203
43 Ar 4.5679 11.2433 2.02417
44 Ar 4.32524 11.1848 6.73748
45 Ar 4.58302 11.0806 11.2237
46 Ar 8.76658 2.17161 2.11246
47 Ar 8.91949 2.25647 6.75047
48 Ar 8.87726 2.11129 11.2447
49 Ar 8.68767 6.66782 2.30197
50 Ar 8.85946 6.63945 6.60658
51 Ar 9.09721 6.6458 10.9477
52 Ar 8.83541 11.1513 2.39358
53 Ar 8.85594 11.307 6.528
54 Ar 9.08003 11.1443 10.8657
55 Ar 2.18182 0.0386053 2.11971
56 Ar 2.14969 0.0165173 6.72142
57 Ar 2.24536 -0.104636 11.0767
58 Ar 2.25746 4.23942 2.35802
59 Ar 1.95719 4.28936 6.77403
60 Ar 2.30993 4.4973 11.2417
61 Ar 2.18479 9.14818 2.22384
62 Ar 2.04875 8.88347 6.7553
63 Ar 2.28886 8.95148 11.0579
64 Ar 6.74016 -0.13317 2.18594
65 Ar 6.76078 0.0905003 6.81357
66 Ar 6.65994 -0.0477869 11.0742
67 Ar 6.69613 4.41796 2.37841
68 Ar 6.64516 4.57943 6.69013
69 Ar 6.47782 4.52027 11.4446
70 Ar 6.77392 8.95043 2.23647
71 Ar 6.60734 8.84385 6.65054
72 Ar 6.82008 8.93293 11.1303
73 Ar 11.0766 0.195168 2.1176
74 Ar 11.1333 -0.0226771 6.48574
75 Ar 11.2175 -0.109041 11.0564
76 Ar 11.105 4.37295 1.9937
77 Ar 11.0824 4.26368 6.73102
78 Ar 11.1458 4.3483 11.0219
79 Ar 11.0666 8.89681 2.46312
80 Ar 11.1546 8.70339 6.54745
81 Ar 11.187 9.04397 11.091
82 Ar 2.12218 2.21099 -0.0656333
83 Ar 2.18158 2.11524 4.53779
84 Ar 2.23102 2.30219 8.93231
85 Ar 2.3413 6.6696 -0.101261
86 Ar 2.50171 6.77007 4.31512
87 Ar 2.08903 6.90283 9.02861
88 Ar 2.20787 10.9967 -0.00553943
89 Ar 2.34454 11.2083 4.30788
90 Ar 2.23402 11.0593 8.90649
91 Ar 6.59658 2.33067 0.0199478
92 Ar 6.91966 2.14213 4.47912
93 Ar 6.64406 2.41987 9.04423
94 Ar 6.74828 6.78588 0.0663748
95 Ar 6.56328 6.63969 4.58
96 Ar 6.76907 6.62786 8.98219
97 Ar 6.79046 11.2301 0.0549759
98 Ar 6.57897 11.0683 4.68426
99 Ar 6.686 11.0333 8.70656
100 Ar 11.0325 2.08132 -0.0791388
101 Ar 11.1806 2.12908 4.54043
102 Ar 11.3523 2.14403 8.85765
103 Ar 11.0607 6.82358 0.124514
104 Ar 11.0299 6.44635 4.39873
105 Ar 11.1479 6.69923 8.8908
106 Ar 10.9657 11.1841 0.0146502
107 Ar 11.0543 11.1738 4.30476
108 Ar 11.2227 11.0682 8.85404
ITEM: TIMESTEP
54060
ITEM: NUMBER OF ATOMS
108
ITEM: BOX BOUNDS pp pp pp
0.0000000000000000e+00 1.3349999400000000e+01
0.0000000000000000e+00 1.3349999400000000e+01
0.0000000000000000e+00 1.3349999400000000e+01
ITEM: ATOMS id element xu yu zu
1 Ar -0.164504 -0.0217088 -0.0396831
2 Ar 0.131767 -0.0865777 4.39429
3 Ar 0.0569464 -0.223019 8.7221
4 Ar -0.0400684 4.51434 -0.0898208
5 Ar -0.111761 4.43402 4.42338
6 Ar 0.0455967 4.54961 8.90933
7 Ar -0.0274254 8.8417 0.0900641
8 Ar -0.0480551 8.75098 4.40811
9 Ar -0.139939 9.06779 8.89447
10 Ar 4.51583 0.132136 0.0249037
11 Ar 4.3932 -0.0705841 4.47225
12 Ar 4.57623 -0.110367 8.92769
13 Ar 4.3366 4.45461 0.137681
14 Ar 4.58218 4.36888 4.60463
15 Ar 4.2152 4.6765 8.8806
16 Ar 4.52968 8.80469 -0.0165412
17 Ar 4.35849 9.12113 4.4282
18 Ar 4.42364 8.95541 8.96209
19 Ar 8.80927 0.0370146 0.0433272
20 Ar 8.97495 -0.0801288 4.24139
21 Ar 8.83025 0.275569 9.0027
22 Ar 8.88434 4.42835 0.0236656
23 Ar 9.02678 4.33628 4.54624
24 Ar 8.91123 4.4444 9.01717
25 Ar 8.94496 9.07584 0.100482
26 Ar 8.8525 8.83626 4.49809
27 Ar 8.95267 8.78261 8.70441
28 Ar -0.0267718 2.2508 2.14217
29 Ar 0.0585916 2.1151 6.74298
30 Ar 0.15486 2.23243 11.1657
31 Ar -0.0309004 6.6404 2.29037
32 Ar 0.100909 6.62333 6.45968
33 Ar -0.194496 6.89166 11.2523
34 Ar -0.0757033 11.3816 2.03724
35 Ar -0.0175793 10.9464 6.36539
36 Ar 0.0317 11.1302 11.0859
37 Ar 4.41386 2.16193 2.31298
38 Ar 4.49464 2.0689 6.9374
39 Ar 4.40208 2.32294 11.033
40 Ar 4.66768 6.69046 2.06508
41 Ar 4.46316 6.73598 6.93869
42 Ar 4.52027 6.63705 11.1145
43 Ar 4.56589 11.2426 2.01784
44 Ar 4.31611 11.1822 6.77537
45 Ar 4.60323 11.079 11.2265
46 Ar 8.77286 2.19497 2.11439
47 Ar 8.9123 2.24865 6.76592
48 Ar 8.872 2.14064 11.2406
49 Ar 8.67449 6.65445 2.31401
50 Ar 8.87331 6.63698 6.58493
51 Ar 9.09844 6.62853 10.9477
52 Ar 8.83877 11.1215 2.3825
53 Ar 8.85245 11.3077 6.54341
54 Ar 9.09047 11.1317 10.8645
55 Ar 2.20125 0.0306071 2.12498
56 Ar 2.15898 0.00858372 6.70971
57 Ar 2.23289 -0.102932 11.0795
58 Ar 2.26467 4.23299 2.3449
59 Ar 1.96886 4.28205 6.7878
60 Ar 2.32099 4.51569 11.2581
61 Ar 2.18223 9.13848 2.22369
62 Ar 2.0472 8.87404 6.73429
63 Ar 2.27899 8.95486 11.0569
64 Ar 6.74999 -0.121184 2.18303
65 Ar 6.74616 0.0903769 6.81742
66 Ar 6.6534 -0.0466535 11.0506
67 Ar 6.70318 4.41906 2.37673
68 Ar 6.62804 4.58379 6.70061
69 Ar 6.48897 4.52201 11.4245
70 Ar 6.77989 8.95078 2.22504
71 Ar 6.64368 8.83827 6.63673
72 Ar 6.84254 8.92348 11.1261
73 Ar 11.0732 0.189024 2.10418
74 Ar 11.1259 -0.0177319 6.46997
75 Ar 11.2201 -0.0954452 11.0627
76 Ar 11.0913 4.35512 1.99992
77 Ar 11.0765 4.27992 6.72569
78 Ar 11.1388 4.34634 11.0348
79 Ar 11.0863 8.89327 2.45066
80 Ar 11.1517 8.69836 6.54797
81 Ar 11.1937 9.02646 11.0786
82 Ar 2.12716 2.1945 -0.0835637
83 Ar 2.18578 2.12948 4.55204
84 Ar 2.22072 2.30233 8.93699
85 Ar 2.34773 6.68412 -0.109977
86 Ar 2.49944 6.78581 4.29025
87 Ar 2.0988 6.90691 9.0216
88 Ar 2.2167 11.0155 0.00171253
89 Ar 2.32566 11.2112 4.30917
90 Ar 2.21854 11.0579 8.89482
91 Ar 6.61432 2.33043 0.0163089
92 Ar 6.90312 2.12484 4.48231
93 Ar 6.62041 2.44307 9.02037
94 Ar 6.72386 6.79405 0.0655852
95 Ar 6.54641 6.65251 4.58849
96 Ar 6.74744 6.64328 8.97673
97 Ar 6.80529 11.2309 0.0774473
98 Ar 6.57352 11.0621 4.69923
99 Ar 6.69621 11.0157 8.71074
100 Ar 11.0267 2.08542 -0.07961
101 Ar 11.1639 2.11847 4.5422
102 Ar 11.3422 2.14252 8.84029
103 Ar 11.0373 6.81682 0.130787
104 Ar 11.0303 6.43912 4.3995
105 Ar 11.1477 6.70564 8.90523
106 Ar 10.968 11.1694 0.0170993
107 Ar 11.0625 11.1696 4.30828
108 Ar 11.1976 11.0545 8.86859
ITEM: TIMESTEP
54070
ITEM: NUMBER OF ATOMS
108
ITEM: BOX BOUNDS pp pp pp
0.0000000000000000e+00 1.3349999400000000e+01
0.0000000000000000e+00 1.3349999400000000e+01
0.0000000000000000e+00 1.3349999400000000e+01
ITEM: ATOMS id element xu yu zu
1 Ar -0.162196 -0.0169718 -0.0227955
2 Ar 0.133489 -0.0740207 4.39593
3 Ar 0.0399374 -0.234555 8.69957
4 Ar -0.0463275 4.52342 -0.0938252
5 Ar -0.104568 4.42786 4.42797
6 Ar 0.0355932 4.53869 8.90257
7 Ar -0.0307942 8.85819 0.110817
8 Ar -0.0669294 8.75169 4.39336
9 Ar -0.14907 9.07247 8.89959
10 Ar 4.52263 0.129586 0.0315166
11 Ar 4.38131 -0.0694173 4.47708
12 Ar 4.57662 -0.122616 8.92602
13 Ar 4.35172 4.45062 0.14082
14 Ar 4.58238 4.34836 4.62111
15 Ar 4.20138 4.68127 8.87068
16 Ar 4.56308 8.79577 -0.0308902
17 Ar 4.33147 9.1345 4.43528
18 Ar 4.4442 8.96416 8.94955
19 Ar 8.79956 0.0297778 0.0442592
20 Ar 8.9734 -0.0738564 4.23216
21 Ar 8.8384 0.258933 9.00239
22 Ar 8.89665 4.42969 0.0244658
23 Ar 9.06221 4.34189 4.55329
24 Ar 8.92403 4.45561 8.98299
25 Ar 8.94886 9.11508 0.0958967
26 Ar 8.83383 8.82734 4.49654
27 Ar 8.95588 8.79146 8.70396
28 Ar -0.039561 2.25666 2.14694
29 Ar 0.0546241 2.11129 6.73436
30 Ar 0.16793 2.23761 11.171
31 Ar -0.0282062 6.61391 2.30239
32 Ar 0.107858 6.62604 6.49005
33 Ar -0.195973 6.86995 11.2508
34 Ar -0.0945089 11.4077 2.03719
35 Ar -0.00968107 10.9726 6.38514
36 Ar 0.0277505 11.1052 11.082
37 Ar 4.43434 2.16211 2.31906
38 Ar 4.50536 2.07926 6.94493
39 Ar 4.38646 2.32529 11.0356
40 Ar 4.68589 6.70035 2.09347
41 Ar 4.46381 6.73282 6.93914
42 Ar 4.53462 6.63266 11.109
43 Ar 4.56225 11.2399 2.01385
44 Ar 4.30756 11.1783 6.8117
45 Ar 4.62223 11.0777 11.2292
46 Ar 8.78097 2.21961 2.11806
47 Ar 8.9046 2.24034 6.78122
48 Ar 8.86639 2.17233 11.2355
49 Ar 8.66482 6.64054 2.32615
50 Ar 8.8878 6.63305 6.56484
51 Ar 9.09735 6.61311 10.9528
52 Ar 8.84289 11.0904 2.36926
53 Ar 8.85163 11.3059 6.56142
54 Ar 9.09645 11.1196 10.8654
55 Ar 2.2213 0.0229145 2.12978
56 Ar 2.17036 -0.000811021 6.69805
57 Ar 2.22141 -0.100487 11.0827
58 Ar 2.27094 4.23013 2.33153
59 Ar 1.98566 4.27826 6.79754
60 Ar 2.32932 4.53415 11.2719
61 Ar 2.17998 9.12505 2.22325
62 Ar 2.04903 8.86475 6.71157
63 Ar 2.26812 8.9585 11.059
64 Ar 6.7575 -0.1059 2.1831
65 Ar 6.73102 0.0898707 6.8192
66 Ar 6.64753 -0.0451052 11.0285
67 Ar 6.70932 4.41952 2.3741
68 Ar 6.61222 4.58477 6.71287
69 Ar 6.50342 4.52367 11.4005
70 Ar 6.78299 8.95209 2.21534
71 Ar 6.67946 8.83261 6.62433
72 Ar 6.86504 8.91407 11.1217
73 Ar 11.0701 0.180542 2.09335
74 Ar 11.1189 -0.0143316 6.45804
75 Ar 11.2219 -0.0798926 11.0681
76 Ar 11.0775 4.33766 2.00901
77 Ar 11.0728 4.29908 6.7215
78 Ar 11.1325 4.34454 11.0493
79 Ar 11.1057 8.88918 2.43506
80 Ar 11.1483 8.69553 6.54867
81 Ar 11.1975 9.00799 11.0684
82 Ar 2.13434 2.17776 -0.099666
83 Ar 2.19111 2.14507 4.56553
84 Ar 2.21009 2.29988 8.94294
85 Ar 2.3512 6.70022 -0.11545
86 Ar 2.49595 6.79918 4.26653
87 Ar 2.1075 6.90798 9.01366
88 Ar 2.22607 11.0367 0.0070135
89 Ar 2.30444 11.2134 4.3118
90 Ar 2.20331 11.0574 8.88316
91 Ar 6.63124 2.32832 0.0130965
92 Ar 6.88306 2.10761 4.4861
93 Ar 6.59719 2.46643 8.99661
94 Ar 6.70217 6.80072 0.0616926
95 Ar 6.52935 6.66671 4.59457
96 Ar 6.72535 6.6588 8.97158
97 Ar 6.81949 11.2292 0.0960199
98 Ar 6.56857 11.0585 4.71078
99 Ar 6.70768 10.9988 8.71733
100 Ar 11.0228 2.09263 -0.0814611
101 Ar 11.1475 2.10954 4.54093
102 Ar 11.3304 2.14043 8.82509
103 Ar 11.0128 6.80888 0.136329
104 Ar 11.0313 6.43409 4.39981
105 Ar 11.1496 6.71084 8.91706
106 Ar 10.972 11.1547 0.019837
107 Ar 11.0731 11.1648 4.31332
108 Ar 11.1701 11.0437 8.87861
ITEM: TIMESTEP
54080
ITEM: NUMBER OF ATOMS
108
ITEM: BOX BOUNDS pp pp pp
0.0000000000000000e+00 1.3349999400000000e+01
0.0000000000000000e+00 1.3349999400000000e+01
0.0000000000000000e+00 1.3349999400000000e+01
ITEM: ATOMS id element xu yu zu
1 Ar -0.156716 -0.0108874 -0.00859825
2 Ar 0.132767 -0.0598742 4.39722
3 Ar 0.0216304 -0.244405 8.67921
4 Ar -0.052044 4.53257 -0.0967033
5 Ar -0.0957721 4.42003 4.43237
6 Ar 0.0244012 4.52833 8.89819
7 Ar -0.0342576 8.87621 0.131723
8 Ar -0.0837502 8.7541 4.37763
9 Ar -0.155288 9.07343 8.90281
10 Ar 4.52846 0.126658 0.0356881
11 Ar 4.37212 -0.0665553 4.4821
12 Ar 4.57435 -0.133937 8.92613
13 Ar 4.36801 4.4454 0.144364
14 Ar 4.57911 4.3273 4.6369
15 Ar 4.18952 4.68231 8.86179
16 Ar 4.59504 8.79014 -0.0453799
17 Ar 4.30674 9.1451 4.44248
18 Ar 4.46591 8.97231 8.93723
19 Ar 8.7912 0.0215568 0.0426714
20 Ar 8.97019 -0.0651729 4.22615
21 Ar 8.84838 0.239222 9.00058
22 Ar 8.90835 4.43304 0.0236856
23 Ar 9.09387 4.34653 4.55791
24 Ar 8.93623 4.46538 8.94758
25 Ar 8.95244 9.15027 0.0893521
26 Ar 8.81595 8.81952 4.49506
27 Ar 8.95888 8.80221 8.7044
28 Ar -0.0519062 2.262 2.15244
29 Ar 0.0488018 2.10775 6.72435
30 Ar 0.177562 2.24226 11.174
31 Ar -0.0237892 6.58674 2.31246
32 Ar 0.113479 6.62795 6.52228
33 Ar -0.194761 6.84535 11.2479
34 Ar -0.113086 11.4285 2.04031
35 Ar -0.00269295 11.0005 6.40687
36 Ar 0.0239477 11.0808 11.0806
37 Ar 4.45638 2.1623 2.32544
38 Ar 4.51466 2.09224 6.94871