ITEM: TIMESTEP
90000
ITEM: NUMBER OF ATOMS
108
ITEM: BOX BOUNDS pp pp pp
0.0000000000000000e+00 1.3349999400000000e+01
0.0000000000000000e+00 1.3349999400000000e+01
0.0000000000000000e+00 1.3349999400000000e+01
ITEM: ATOMS id element xu yu zu
1 Ar -0.231087 0.0456204 0.0836155
2 Ar 0.0569528 -0.10114 4.7002
3 Ar -0.0254667 -0.285549 8.91371
4 Ar 0.0867247 4.39273 -0.265631
5 Ar 0.169553 4.63168 4.44151
6 Ar 0.11597 4.43633 8.90121
7 Ar 0.0125967 9.11948 -0.125062
8 Ar 0.069491 8.8225 4.40987
9 Ar 0.0930556 8.85094 8.996
10 Ar 4.37906 0.0544115 -0.113865
11 Ar 4.5325 -0.104773 4.52741
12 Ar 4.42737 0.107433 8.99827
13 Ar 4.5346 4.40653 -0.220002
14 Ar 4.41445 4.36751 4.46685
15 Ar 4.48364 4.49556 8.95586
16 Ar 4.48024 9.08544 0.029669
17 Ar 4.63939 8.95868 4.54964
18 Ar 4.5562 8.93106 8.86345
19 Ar 8.98642 0.0986461 -0.106447
20 Ar 8.95927 0.0630929 4.57497
21 Ar 8.99157 0.153748 9.04208
22 Ar 8.89685 4.429 0.00703454
23 Ar 8.89858 4.44027 4.57268
24 Ar 8.85502 4.56069 8.80117
25 Ar 8.84394 8.691 0.0613899
26 Ar 8.85051 9.01842 4.13178
27 Ar 8.68967 8.6988 9.05101
28 Ar 0.131663 2.31174 2.28974
29 Ar -0.11163 2.06582 6.69693
30 Ar -0.0565238 2.19798 11.0855
31 Ar -0.0283644 6.91858 2.06405
32 Ar -0.00246469 6.84371 6.67409
33 Ar 0.111231 6.62522 11.0703
34 Ar 0.0215927 11.0029 2.24697
35 Ar -0.212517 10.8833 6.64824
36 Ar -0.0129889 11.0123 11.1626
37 Ar 4.39588 2.18348 2.25862
38 Ar 4.35507 1.98754 6.71277
39 Ar 4.50424 2.21362 11.0972
40 Ar 4.38157 6.72986 2.03167
41 Ar 4.38552 6.74736 6.62641
42 Ar 4.49979 6.79427 11.0149
43 Ar 4.37975 11.3291 2.25333
44 Ar 4.47766 11.1442 6.858
45 Ar 4.5418 11.1105 11.2598
46 Ar 8.90874 2.21655 2.28326
47 Ar 8.8499 2.15693 6.85224
48 Ar 9.02789 2.45226 10.9557
49 Ar 8.7998 6.53993 2.37432
50 Ar 8.98153 6.67605 6.6885
51 Ar 8.93316 6.62858 11.085
52 Ar 8.89751 11.2197 2.19302
53 Ar 8.8371 11.0012 6.76378
54 Ar 8.9742 11.0393 11.3318
55 Ar 2.06205 -0.101958 2.23343
56 Ar 2.21642 -0.104702 6.59408
57 Ar 2.08418 0.0311145 11.1173
58 Ar 2.16584 4.56816 2.00565
59 Ar 2.24091 4.56931 6.6766
60 Ar 2.34038 4.45327 11.0253
61 Ar 2.30751 8.94201 2.23924
62 Ar 2.28464 9.07733 6.76115
63 Ar 2.34442 8.86687 11.0719
64 Ar 6.57186 0.006861 2.16403
65 Ar 6.57674 -0.121707 6.94238
66 Ar 6.70242 0.0909909 11.0114
67 Ar 6.58544 4.30347 2.2073
68 Ar 6.38053 4.28208 6.65071
69 Ar 6.65928 4.37774 11.1471
70 Ar 6.55585 9.06545 2.23319
71 Ar 6.69274 8.70375 6.68233
72 Ar 6.73417 8.75728 11.2706
73 Ar 11.1364 -0.052478 2.60109
74 Ar 11.0272 -0.0683158 6.78084
75 Ar 11.2529 -0.0353703 11.1937
76 Ar 10.9168 4.5945 2.13342
77 Ar 11.2363 4.50517 6.54739
78 Ar 11.1103 4.53677 10.9993
79 Ar 10.9762 8.93513 2.26628
80 Ar 10.8371 8.91363 6.44261
81 Ar 11.0817 8.8044 11.2505
82 Ar 2.22324 2.23435 -0.0251553
83 Ar 2.28722 2.16442 4.57911
84 Ar 2.18385 2.08731 8.76428
85 Ar 2.362 6.87188 -0.107541
86 Ar 2.09577 6.83145 4.22122
87 Ar 2.32391 6.87904 8.75409
88 Ar 2.16815 11.1929 -0.185542
89 Ar 2.20073 11.1859 4.54512
90 Ar 2.25652 11.013 8.89892
91 Ar 6.68482 2.25352 -0.00110733
92 Ar 6.82485 2.00272 4.63754
93 Ar 6.64606 2.41207 8.88529
94 Ar 6.71244 6.53911 -0.105883
95 Ar 6.5371 6.46365 4.42966
96 Ar 6.66808 6.55992 8.86155
97 Ar 6.82796 11.2771 -0.0138089
98 Ar 6.73618 11.2172 4.49625
99 Ar 6.89428 11.1655 9.13797
100 Ar 11.0693 2.41688 0.0625723
101 Ar 11.2526 2.29785 4.4204
102 Ar 11.1032 2.42281 8.74187
103 Ar 11.1841 6.60758 0.0937591
104 Ar 11.2603 6.54356 4.50762
105 Ar 11.3104 6.79454 8.76184
106 Ar 11.1437 11.0075 0.0961944
107 Ar 11.1113 11.0738 4.31339
108 Ar 10.8633 10.9329 8.90445
ITEM: TIMESTEP
90010
ITEM: NUMBER OF ATOMS
108
ITEM: BOX BOUNDS pp pp pp
0.0000000000000000e+00 1.3349999400000000e+01
0.0000000000000000e+00 1.3349999400000000e+01
0.0000000000000000e+00 1.3349999400000000e+01
ITEM: ATOMS id element xu yu zu
1 Ar -0.214648 0.0576462 0.0936791
2 Ar 0.0641588 -0.0983681 4.69365
3 Ar -0.026888 -0.267616 8.93772
4 Ar 0.0830613 4.41055 -0.236886
5 Ar 0.174178 4.62514 4.43413
6 Ar 0.109805 4.43971 8.8985
7 Ar 0.0242381 9.11327 -0.104357
8 Ar 0.0526493 8.81478 4.45
9 Ar 0.111848 8.84243 9.00669
10 Ar 4.3806 0.0302903 -0.1093
11 Ar 4.52809 -0.101487 4.51956
12 Ar 4.43093 0.11537 8.98751
13 Ar 4.53371 4.40273 -0.215797
14 Ar 4.41572 4.3753 4.4546
15 Ar 4.47145 4.514 8.967
16 Ar 4.48897 9.04638 0.0292231
17 Ar 4.66448 8.95788 4.54258
18 Ar 4.55896 8.92287 8.86623
19 Ar 8.98313 0.0906513 -0.0998496
20 Ar 8.95486 0.0659339 4.57639
21 Ar 9.00345 0.147406 9.04378
22 Ar 8.89637 4.43634 0.00618224
23 Ar 8.90575 4.451 4.5721
24 Ar 8.82891 4.57026 8.82259
25 Ar 8.83966 8.6927 0.0674607
26 Ar 8.84772 9.00584 4.11973
27 Ar 8.68296 8.71835 9.05859
28 Ar 0.127481 2.30154 2.29176
29 Ar -0.0997294 2.04953 6.71207
30 Ar -0.0662094 2.20593 11.0976
31 Ar -0.0205026 6.94454 2.05128
32 Ar 0.00535975 6.84504 6.70006
33 Ar 0.0830408 6.63074 11.0766
34 Ar 0.0176786 10.989 2.24292
35 Ar -0.221214 10.8857 6.66906
36 Ar -0.00345146 10.9986 11.1621
37 Ar 4.38816 2.18913 2.23537
38 Ar 4.36307 1.9868 6.70986
39 Ar 4.49987 2.19827 11.098
40 Ar 4.38738 6.73131 2.0363
41 Ar 4.37587 6.7592 6.6473
42 Ar 4.487 6.8014 10.9948
43 Ar 4.37411 11.3056 2.27029
44 Ar 4.4922 11.1423 6.87657
45 Ar 4.56069 11.1037 11.2617
46 Ar 8.88872 2.22062 2.26365
47 Ar 8.86837 2.15501 6.84377
48 Ar 9.03132 2.44481 10.9852
49 Ar 8.78908 6.53813 2.33921
50 Ar 8.96541 6.67394 6.68349
51 Ar 8.94173 6.625 11.07
52 Ar 8.87716 11.2223 2.19882
53 Ar 8.84002 11.0044 6.74737
54 Ar 8.97898 11.0553 11.3345
55 Ar 2.0493 -0.0976222 2.23339
56 Ar 2.20771 -0.125985 6.59403
57 Ar 2.07412 0.0434764 11.1091
58 Ar 2.1625 4.56177 1.98359
59 Ar 2.23288 4.5836 6.662
60 Ar 2.3683 4.45583 11.0378
61 Ar 2.29754 8.93013 2.22106
62 Ar 2.28559 9.08414 6.73801
63 Ar 2.34936 8.85231 11.0806
64 Ar 6.57894 0.016198 2.16659
65 Ar 6.56385 -0.122705 6.95065
66 Ar 6.70517 0.115058 11.0262
67 Ar 6.59236 4.30942 2.20313
68 Ar 6.39595 4.29612 6.63636
69 Ar 6.6584 4.36585 11.1493
70 Ar 6.54949 9.04225 2.23463
71 Ar 6.69016 8.71436 6.68651
72 Ar 6.73143 8.77416 11.2625
73 Ar 11.1293 -0.0574843 2.58957
74 Ar 11.0282 -0.0597338 6.78621
75 Ar 11.2478 -0.0456011 11.1826
76 Ar 10.9072 4.58073 2.11815
77 Ar 11.2401 4.51906 6.55259
78 Ar 11.0957 4.54598 11.0079
79 Ar 10.961 8.91794 2.26874
80 Ar 10.8454 8.92324 6.43395
81 Ar 11.0727 8.79746 11.2443
82 Ar 2.23552 2.2434 -0.0104507
83 Ar 2.28706 2.17759 4.54524
84 Ar 2.17469 2.10441 8.77027
85 Ar 2.33583 6.87744 -0.105482
86 Ar 2.11211 6.84623 4.23837
87 Ar 2.342 6.87122 8.75125
88 Ar 2.17534 11.1747 -0.177957
89 Ar 2.20387 11.2163 4.51228
90 Ar 2.25183 10.9951 8.89214
91 Ar 6.69836 2.2563 -0.0160232
92 Ar 6.81113 1.99629 4.63886
93 Ar 6.64793 2.41681 8.88842
94 Ar 6.70754 6.54856 -0.146831
95 Ar 6.52394 6.44981 4.44549
96 Ar 6.68738 6.5444 8.85777
97 Ar 6.84019 11.2653 -0.00613298
98 Ar 6.72733 11.2126 4.4913
99 Ar 6.88816 11.1711 9.14726
100 Ar 11.0871 2.4133 0.0575106
101 Ar 11.2763 2.30325 4.4232
102 Ar 11.1086 2.40025 8.73498
103 Ar 11.1873 6.61095 0.0788309
104 Ar 11.2629 6.55585 4.51847
105 Ar 11.3248 6.79537 8.77248
106 Ar 11.1375 11.0125 0.0933305
107 Ar 11.1021 11.0681 4.30569
108 Ar 10.8669 10.9151 8.90913
ITEM: TIMESTEP
90020
ITEM: NUMBER OF ATOMS
108
ITEM: BOX BOUNDS pp pp pp
0.0000000000000000e+00 1.3349999400000000e+01
0.0000000000000000e+00 1.3349999400000000e+01
0.0000000000000000e+00 1.3349999400000000e+01
ITEM: ATOMS id element xu yu zu
1 Ar -0.196556 0.0693526 0.104697
2 Ar 0.0683081 -0.0952013 4.68355
3 Ar -0.0291871 -0.248266 8.96004
4 Ar 0.0784763 4.42969 -0.205557
5 Ar 0.17807 4.61591 4.42557
6 Ar 0.103436 4.44356 8.89496
7 Ar 0.0364378 9.10154 -0.0817078
8 Ar 0.0337538 8.81006 4.4899
9 Ar 0.128282 8.8361 9.01668
10 Ar 4.38276 0.00617831 -0.103383
11 Ar 4.5227 -0.0967368 4.51133
12 Ar 4.43337 0.119748 8.97805
13 Ar 4.53045 4.40019 -0.208004
14 Ar 4.41466 4.38304 4.44064
15 Ar 4.45729 4.53138 8.9762
16 Ar 4.49826 9.00682 0.0288933
17 Ar 4.68589 8.95742 4.5342
18 Ar 4.56351 8.91569 8.87034
19 Ar 8.98046 0.0837403 -0.0919301
20 Ar 8.95001 0.0667408 4.57806
21 Ar 9.01489 0.138625 9.04565
22 Ar 8.89449 4.44443 0.0040924
23 Ar 8.91193 4.45994 4.57142
24 Ar 8.80493 4.57897 8.84287
25 Ar 8.83582 8.69581 0.0746752
26 Ar 8.84207 8.9904 4.11326
27 Ar 8.67946 8.73984 9.06377
28 Ar 0.12144 2.29138 2.29341
29 Ar -0.0856542 2.03572 6.72732
30 Ar -0.075765 2.21409 11.1085
31 Ar -0.0124073 6.9676 2.03882
32 Ar 0.0151818 6.84558 6.72542
33 Ar 0.0548033 6.63722 11.0836
34 Ar 0.0136569 10.9764 2.23926
35 Ar -0.228943 10.8895 6.69104
36 Ar 0.00472505 10.9873 11.1587
37 Ar 4.37995 2.19448 2.21222
38 Ar 4.37208 1.98948 6.70639
39 Ar 4.49359 2.183 11.0986
40 Ar 4.39575 6.73116 2.04318
41 Ar 4.3667 6.76969 6.66688
42 Ar 4.47457 6.80656 10.9765
43 Ar 4.36862 11.2799 2.28578
44 Ar 4.50798 11.14 6.8934
45 Ar 4.57923 11.0978 11.2602
46 Ar 8.86881 2.22388 2.24451
47 Ar 8.88689 2.15491 6.8328
48 Ar 9.03372 2.43474 11.0167
49 Ar 8.77691 6.53844 2.30336
50 Ar 8.94763 6.67131 6.67702
51 Ar 8.95045 6.6201 11.0563
52 Ar 8.85634 11.2265 2.20355
53 Ar 8.84115 11.0094 6.72971
54 Ar 8.98409 11.0716 11.3355
55 Ar 2.03776 -0.0915125 2.23289
56 Ar 2.19941 -0.147363 6.5984
57 Ar 2.06525 0.0553464 11.1008
58 Ar 2.16051 4.55557 1.96338
59 Ar 2.22501 4.5962 6.6476
60 Ar 2.39434 4.45846 11.0504
61 Ar 2.28817 8.92125 2.20211
62 Ar 2.286 9.0888 6.7112
63 Ar 2.35353 8.83982 11.0894
64 Ar 6.58787 0.0266305 2.16969
65 Ar 6.55459 -0.122444 6.95743
66 Ar 6.70888 0.139372 11.0431
67 Ar 6.59939 4.31628 2.19982
68 Ar 6.41421 4.31193 6.62182
69 Ar 6.65915 4.35557 11.15
70 Ar 6.54387 9.01745 2.23459
71 Ar 6.68936 8.72724 6.69013
72 Ar 6.72749 8.79355 11.2534
73 Ar 11.1238 -0.0596347 2.57205
74 Ar 11.0301 -0.0522604 6.79076
75 Ar 11.2407 -0.0556595 11.1699
76 Ar 10.9028 4.56445 2.1068
77 Ar 11.2439 4.53137 6.56058
78 Ar 11.0829 4.55563 11.0167
79 Ar 10.9493 8.89834 2.26904
80 Ar 10.856 8.93152 6.42711
81 Ar 11.0644 8.79041 11.2365
82 Ar 2.24749 2.25138 0.00365083
83 Ar 2.28531 2.19132 4.5101
84 Ar 2.1648 2.12317 8.77769
85 Ar 2.30781 6.88043 -0.103409
86 Ar 2.1332 6.85847 4.25846
87 Ar 2.35855 6.86019 8.75062
88 Ar 2.18357 11.157 -0.167539
89 Ar 2.20803 11.2426 4.47826
90 Ar 2.24725 10.9808 8.88782
91 Ar 6.71234 2.25711 -0.03107
92 Ar 6.79447 1.9923 4.63827
93 Ar 6.65 2.41851 8.89187
94 Ar 6.7014 6.55865 -0.184473
95 Ar 6.51248 6.43869 4.46083
96 Ar 6.70495 6.52955 8.85393
97 Ar 6.84984 11.2524 0.00164671
98 Ar 6.71871 11.208 4.48689
99 Ar 6.88015 11.1752 9.15527
100 Ar 11.1062 2.40725 0.052071
101 Ar 11.2987 2.30934 4.4264
102 Ar 11.1157 2.37654 8.73076
103 Ar 11.1897 6.61577 0.0611817
104 Ar 11.2633 6.57089 4.52583
105 Ar 11.3357 6.79537 8.78473
106 Ar 11.13 11.0197 0.0906375
107 Ar 11.0932 11.0619 4.302
108 Ar 10.873 10.8977 8.91506
ITEM: TIMESTEP
90030
ITEM: NUMBER OF ATOMS
108
ITEM: BOX BOUNDS pp pp pp
0.0000000000000000e+00 1.3349999400000000e+01
0.0000000000000000e+00 1.3349999400000000e+01
0.0000000000000000e+00 1.3349999400000000e+01
ITEM: ATOMS id element xu yu zu
1 Ar -0.177163 0.0803738 0.116114
2 Ar 0.06911 -0.091674 4.67009
3 Ar -0.0323169 -0.227829 8.98033
4 Ar 0.0729963 4.44983 -0.172312
5 Ar 0.181138 4.6046 4.41581
6 Ar 0.0969981 4.44784 8.8909
7 Ar 0.0485342 9.08499 -0.0580431
8 Ar 0.013354 8.80835 4.5288
9 Ar 0.142328 8.83188 9.02583
10 Ar 4.38546 -0.0177134 -0.0961029
11 Ar 4.51636 -0.0905284 4.50281
12 Ar 4.43441 0.120583 8.97022
13 Ar 4.52524 4.39902 -0.196757
14 Ar 4.4112 4.39055 4.42519
15 Ar 4.44183 4.54715 8.98295
16 Ar 4.50801 8.96734 0.0284385
17 Ar 4.70317 8.95719 4.52479
18 Ar 4.56974 8.90972 8.87564
19 Ar 8.9786 0.0780095 -0.0826909
20 Ar 8.94486 0.0656696 4.57981
21 Ar 9.02549 0.12759 9.04761
22 Ar 8.89126 4.45316 0.000650515
23 Ar 8.91722 4.46698 4.57038
24 Ar 8.78398 4.58595 8.86166
25 Ar 8.83243 8.70038 0.0826033
26 Ar 8.83349 8.97221 4.11252
27 Ar 8.67915 8.76284 9.06636
28 Ar 0.113544 2.28147 2.29456
29 Ar -0.0694471 2.02454 6.74231
30 Ar -0.0850691 2.22271 11.1182
31 Ar -0.0043284 6.98728 2.02745
32 Ar 0.0268866 6.84518 6.74979
33 Ar 0.0270904 6.64434 11.0914
34 Ar 0.0093874 10.9652 2.23623
35 Ar -0.235515 10.895 6.71395
36 Ar 0.011502 10.9786 11.1528
37 Ar 4.37169 2.19947 2.1894
38 Ar 4.38151 1.99572 6.70229
39 Ar 4.48539 2.16807 11.0991
40 Ar 4.40634 6.72917 2.05211
41 Ar 4.35852 6.77876 6.68466
42 Ar 4.463 6.80962 10.9604
43 Ar 4.36356 11.2524 2.29941
44 Ar 4.52461 11.1373 6.9082
45 Ar 4.597 11.0928 11.2556
46 Ar 8.84942 2.22629 2.22625
47 Ar 8.90506 2.15677 6.81954
48 Ar 9.03528 2.4221 11.0496
49 Ar 8.76341 6.54063 2.26729
50 Ar 8.92865 6.66846 6.66934
51 Ar 8.95894 6.61441 11.0441
52 Ar 8.83545 11.2318 2.20742
53 Ar 8.84058 11.0162 6.71117
54 Ar 8.98935 11.088 11.3346
55 Ar 2.02777 -0.0837927 2.23169
56 Ar 2.19179 -0.16836 6.60716
57 Ar 2.05787 0.0664172 11.093
58 Ar 2.15995 4.54996 1.94559
59 Ar 2.21747 4.60682 6.63349
60 Ar 2.41752 4.46122 11.0632
61 Ar 2.27963 8.91541 2.183
62 Ar 2.28604 9.09152 6.68105
63 Ar 2.35681 8.8297 11.0981
64 Ar 6.59817 0.0379069 2.17321
65 Ar 6.5494 -0.120835 6.96251
66 Ar 6.71358 0.163361 11.0617
67 Ar 6.60634 4.32397 2.1973
68 Ar 6.43485 4.32901 6.60757
69 Ar 6.66126 4.34696 11.1491
70 Ar 6.53924 8.99128 2.23298
71 Ar 6.6904 8.74219 6.69331
72 Ar 6.72254 8.81509 11.2436
73 Ar 11.1196 -0.058942 2.54897
74 Ar 11.0331 -0.0462239 6.79428
75 Ar 11.2321 -0.0654486 11.1563
76 Ar 10.9037 4.54623 2.09959
77 Ar 11.2477 4.54192 6.57135
78 Ar 11.0722 4.56522 11.0256
79 Ar 10.9411 8.87673 2.26707
80 Ar 10.8686 8.93811 6.4224
81 Ar 11.0569 8.78361 11.2277
82 Ar 2.25884 2.258 0.0166692
83 Ar 2.2822 2.20532 4.47444
84 Ar 2.15462 2.14338 8.78636
85 Ar 2.27853 6.88053 -0.101321
86 Ar 2.15845 6.86819 4.28104
87 Ar 2.3729 6.84633 8.75236
88 Ar 2.1929 11.1402 -0.15466
89 Ar 2.21303 11.2644 4.44365
90 Ar 2.24291 10.97 8.88605
91 Ar 6.72638 2.25603 -0.0458922
92 Ar 6.77522 1.99088 4.63585
93 Ar 6.65226 2.41729 8.89528
94 Ar 6.69403 6.56917 -0.218596
95 Ar 6.50304 6.4306 4.47537
96 Ar 6.72019 6.51606 8.85015
97 Ar 6.8566 11.2384 0.00946908
98 Ar 6.71044 11.2036 4.48304
99 Ar 6.87049 11.178 9.16194
100 Ar 11.1262 2.39878 0.0463533
101 Ar 11.3193 2.31594 4.42999
102 Ar 11.1241 2.35233 8.72958
103 Ar 11.1912 6.62193 0.0413599
104 Ar 11.2616 6.58819 4.52953
105 Ar 11.3424 6.79466 8.79824
106 Ar 11.1217 11.029 0.0882595
107 Ar 11.0847 11.0556 4.30208
108 Ar 10.8815 10.8807 8.92201
ITEM: TIMESTEP
90040
ITEM: NUMBER OF ATOMS
108
ITEM: BOX BOUNDS pp pp pp
0.0000000000000000e+00 1.3349999400000000e+01
0.0000000000000000e+00 1.3349999400000000e+01
0.0000000000000000e+00 1.3349999400000000e+01
ITEM: ATOMS id element xu yu zu
1 Ar -0.156802 0.0903449 0.127337
2 Ar 0.0664508 -0.0878313 4.65359
3 Ar -0.0362184 -0.206615 8.99833
4 Ar 0.0666075 4.47063 -0.137813
5 Ar 0.183283 4.59187 4.40486
6 Ar 0.090601 4.4525 8.88665
7 Ar 0.0598677 9.06455 -0.0344174
8 Ar -0.00792273 8.80957 4.5659
9 Ar 0.153992 8.8296 9.03402
10 Ar 4.38864 -0.0411862 -0.0874709
11 Ar 4.50909 -0.0829136 4.49411
12 Ar 4.43388 0.117985 8.96421
13 Ar 4.51857 4.39931 -0.182279
14 Ar 4.40534 4.39764 4.40847
15 Ar 4.42574 4.56076 8.98676
16 Ar 4.51806 8.92845 0.0276019
17 Ar 4.71601 8.95707 4.5147
18 Ar 4.57747 8.90514 8.88197
19 Ar 8.97766 0.0734882 -0.0721566
20 Ar 8.93958 0.0629351 4.58146
21 Ar 9.03484 0.114524 9.04957
22 Ar 8.88686 4.46244 -0.0041627
23 Ar 8.92172 4.47207 4.56868
24 Ar 8.76689 4.59035 8.87865
25 Ar 8.82946 8.70645 0.0907736
26 Ar 8.82205 8.95145 4.11743
27 Ar 8.68193 8.78689 9.06627
28 Ar 0.103831 2.27202 2.29505
29 Ar -0.0512066 2.01607 6.75662
30 Ar -0.0939805 2.23201 11.1269
31 Ar 0.00347635 7.00305 2.01803
32 Ar 0.0402728 6.8437 6.77281
33 Ar 0.000466348 6.65182 11.0998
34 Ar 0.00471736 10.9554 2.23404
35 Ar -0.240737 10.9025 6.73758
36 Ar 0.0168779 10.9721 11.1451
37 Ar 4.36385 2.20401 2.16714
38 Ar 4.39082 2.00554 6.69756
39 Ar 4.47533 2.15376 11.0998
40 Ar 4.41873 6.72516 2.06287
41 Ar 4.35185 6.78636 6.7002
42 Ar 4.45274 6.81051 10.9471
43 Ar 4.35926 11.2233 2.31083
44 Ar 4.54172 11.134 6.92071
45 Ar 4.61357 11.0888 11.2481
46 Ar 8.83099 2.22786 2.20921
47 Ar 8.92251 2.1607 6.80425
48 Ar 9.03626 2.40702 11.0831
49 Ar 8.74878 6.5444 2.23154
50 Ar 8.909 6.66567 6.66069
51 Ar 8.96684 6.60852 11.0336
52 Ar 8.81496 11.2381 2.21069
53 Ar 8.83847 11.0248 6.69212
54 Ar 8.99455 11.1042 11.3319
55 Ar 2.0197 -0.0746355 2.22956
56 Ar 2.185 -0.188623 6.62008
57 Ar 2.0522 0.0764179 11.086
58 Ar 2.16091 4.54528 1.93081
59 Ar 2.21043 4.61521 6.61977
60 Ar 2.43698 4.46411 11.0761
61 Ar 2.27216 8.91249 2.16434
62 Ar 2.28587 9.09256 6.64809
63 Ar 2.35913 8.82222 11.1066
64 Ar 6.60936 0.0497609 2.17703
65 Ar 6.54857 -0.117787 6.9657
66 Ar 6.71927 0.186416 11.0814
67 Ar 6.61302 4.33234 2.19548
68 Ar 6.45744 4.34681 6.59409
69 Ar 6.66435 4.34006 11.1468
70 Ar 6.53587 8.96398 2.22972
71 Ar 6.69323 8.759 6.69612
72 Ar 6.71686 8.83838 11.2331
73 Ar 11.1166 -0.0555399 2.5209
74 Ar 11.0373 -0.0418925 6.79659
75 Ar 11.2222 -0.0748491 11.1424
76 Ar 10.9095 4.52669 2.09653
77 Ar 11.2513 4.55064 6.58474
78 Ar 11.0638 4.57418 11.0344
79 Ar 10.9365 8.85362 2.26288
80 Ar 10.8824 8.94273 6.42017
81 Ar 11.0503 8.77748 11.218
82 Ar 2.26922 2.26303 0.0281219
83 Ar 2.27794 2.21929 4.43895
84 Ar 2.14461 2.16482 8.7961
85 Ar 2.24863 6.8775 -0.0992421
86 Ar 2.18714 6.87554 4.30557
87 Ar 2.38438 6.83012 8.75657
88 Ar 2.20332 11.1244 -0.139737
89 Ar 2.21863 11.281 4.40908
90 Ar 2.23897 10.9629 8.8868
91 Ar 6.74005 2.25323 -0.0601084
92 Ar 6.75379 1.9921 4.63165
93 Ar 6.65468 2.41331 8.89832
94 Ar 6.68548 6.5799 -0.249076
95 Ar 6.49588 6.42585 4.4888
96 Ar 6.73255 6.50466 8.84653
97 Ar 6.86024 11.2235 0.0172412
98 Ar 6.70261 11.1994 4.47976
99 Ar 6.85944 11.18 9.16719
100 Ar 11.1466 2.388 0.0404721
101 Ar 11.3378 2.32285 4.43396
102 Ar 11.1336 2.32821 8.73173
103 Ar 11.1918 6.62925 0.0200089
104 Ar 11.258 6.6071 4.52954
105 Ar 11.3448 6.79335 8.8126
106 Ar 11.113 11.0398 0.0863159
107 Ar 11.0765 11.0495 4.30554
108 Ar 10.8924 10.8645 8.9297
ITEM: TIMESTEP
90050
ITEM: NUMBER OF ATOMS
108
ITEM: BOX BOUNDS pp pp pp
0.0000000000000000e+00 1.3349999400000000e+01
0.0000000000000000e+00 1.3349999400000000e+01
0.0000000000000000e+00 1.3349999400000000e+01
ITEM: ATOMS id element xu yu zu
1 Ar -0.135779 0.0989088 0.137757
2 Ar 0.0603926 -0.0837405 4.63446
3 Ar -0.0408137 -0.18491 9.0138
4 Ar 0.0592582 4.49171 -0.102701
5 Ar 0.184406 4.57838 4.39277
6 Ar 0.0843256 4.45753 8.88253
7 Ar 0.069809 9.04131 -0.0119442
8 Ar -0.0294026 8.81355 4.60045
9 Ar 0.163313 8.82906 9.04109
10 Ar 4.39225 -0.0640526 -0.0775267
11 Ar 4.50093 -0.0739917 4.48529
12 Ar 4.43164 0.112148 8.96014
13 Ar 4.511 4.40109 -0.164881
14 Ar 4.39719 4.40418 4.39076
15 Ar 4.4097 4.57166 8.98725
16 Ar 4.52818 8.89063 0.026134
17 Ar 4.72421 8.95693 4.50428
18 Ar 4.58643 8.90204 8.88912
19 Ar 8.97774 0.070134 -0.0603772
20 Ar 8.93428 0.0588047 4.58278
21 Ar 9.04259 0.0996821 9.05134
22 Ar 8.88152 4.47211 -0.010273
23 Ar 8.92559 4.47518 4.56605
24 Ar 8.7544 4.5914 8.89355
25 Ar 8.8269 8.71409 0.098692
26 Ar 8.80799 8.92838 4.12775
27 Ar 8.68761 8.81147 9.06346
28 Ar 0.0923734 2.26327 2.29471
29 Ar -0.0310934 2.01032 6.76984
30 Ar -0.102335 2.24217 11.1347
31 Ar 0.0107529 7.01438 2.01146
32 Ar 0.0550582 6.84105 6.79417
33 Ar -0.0245198 6.65939 11.1088
34 Ar -0.000508135 10.9472 2.23285
35 Ar -0.244419 10.9122 6.76168
36 Ar 0.0208823 10.9677 11.1362
37 Ar 4.3569 2.20803 2.14572
38 Ar 4.3995 2.0189 6.69228
39 Ar 4.46352 2.14035 11.1006
40 Ar 4.43245 6.71902 2.07526
41 Ar 4.34714 6.79248 6.71317
42 Ar 4.44419 6.80919 10.9369
43 Ar 4.35608 11.1934 2.31969
44 Ar 4.55893 11.1302 6.93074
45 Ar 4.62847 11.0857 11.2383
46 Ar 8.81391 2.22868 2.19372
47 Ar 8.93899 2.16672 6.78722
48 Ar 9.03692 2.38971 11.1166
49 Ar 8.73334 6.5494 2.19662
50 Ar 8.88915 6.66315 6.65132
51 Ar 8.97372 6.60303 11.025
52 Ar 8.79531 11.2448 2.2137
53 Ar 8.83511 11.035 6.67297
54 Ar 8.99946 11.1201 11.3273
55 Ar 2.01389 -0.0642266 2.22636
56 Ar 2.17913 -0.207906 6.63675
57 Ar 2.04843 0.0851154 11.0801
58 Ar 2.16344 4.54181 1.91956
59 Ar 2.20402 4.62111 6.60652
60 Ar 2.452 4.46712 11.0895
61 Ar 2.26605 8.91225 2.14677
62 Ar 2.28567 9.09231 6.61296
63 Ar 2.36045 8.81756 11.1147
64 Ar 6.62095 0.0619191 2.18105
65 Ar 6.55226 -0.113218 6.96688
66 Ar 6.72592 0.207901 11.1018
67 Ar 6.61926 4.34127 2.1943
68 Ar 6.48152 4.36478 6.58178
69 Ar 6.66799 4.33488 11.1432
70 Ar 6.53401 8.93586 2.22483
71 Ar 6.69773 8.77739 6.69862
72 Ar 6.71078 8.86292 11.222
73 Ar 11.1146 -0.0496557 2.48854
74 Ar 11.0426 -0.0394562 6.79753
75 Ar 11.2116 -0.0837255 11.1286
76 Ar 10.9201 4.50645 2.09748
77 Ar 11.2547 4.55756 6.60051
78 Ar 11.0578 4.58195 11.0428
79 Ar 10.9353 8.82954 2.25666
80 Ar 10.897 8.94519 6.42078
81 Ar 11.0448 8.7724 11.2079
82 Ar 2.27826 2.26625 0.037548
83 Ar 2.27276 2.23295 4.40428
84 Ar 2.13527 2.18726 8.80678
85 Ar 2.21882 6.87115 -0.0972261
86 Ar 2.21848 6.88074 4.33144
87 Ar 2.39244 6.8121 8.76332
88 Ar 2.21473 11.11 -0.123217
89 Ar 2.22456 11.2923 4.37526
90 Ar 2.23561 10.9593 8.88992
91 Ar 6.75291 2.249 -0.073316
92 Ar 6.73065 1.99602 4.62577
93 Ar 6.65724 2.40674 8.90071
94 Ar 6.67586 6.59064 -0.275869
95 Ar 6.49114 6.42468 4.50084
96 Ar 6.74156 6.49603 8.84317
97 Ar 6.86058 11.2079 0.0248453
98 Ar 6.69523 11.1957 4.47703
99 Ar 6.84729 11.1815 9.17092
100 Ar 11.167 2.37512 0.0345562
101 Ar 11.3538 2.32986 4.4384
102 Ar 11.1439 2.30467 8.73738
103 Ar 11.1911 6.63753 -0.00216307
104 Ar 11.2526 6.62693 4.52599
105 Ar 11.3425 6.79157 8.82738
106 Ar 11.1042 11.0519 0.0849006
107 Ar 11.0689 11.0439 4.31184
108 Ar 10.9055 10.8493 8.93785
ITEM: TIMESTEP
90060
ITEM: NUMBER OF ATOMS
108
ITEM: BOX BOUNDS pp pp pp
0.0000000000000000e+00 1.3349999400000000e+01
0.0000000000000000e+00 1.3349999400000000e+01
0.0000000000000000e+00 1.3349999400000000e+01
ITEM: ATOMS id element xu yu zu
1 Ar -0.114365 0.105724 0.146767
2 Ar 0.0511533 -0.0794962 4.61319
3 Ar -0.0459999 -0.162978 9.02657
4 Ar 0.0508694 4.51269 -0.0675698
5 Ar 0.184416 4.56481 4.37965
6 Ar 0.0782284 4.4629 8.87881
7 Ar 0.0777845 9.01648 0.00828149
8 Ar -0.0504012 8.82005 4.63175
9 Ar 0.170354 8.82999 9.04689
10 Ar 4.39626 -0.0861341 -0.0663387
11 Ar 4.49187 -0.0639097 4.47643
12 Ar 4.42769 0.103342 8.95799
13 Ar 4.50308 4.40435 -0.144957
14 Ar 4.38696 4.41008 4.37234
15 Ar 4.39434 4.57935 8.98418
16 Ar 4.53809 8.85432 0.0238145
17 Ar 4.7277 8.95664 4.49386
18 Ar 4.59629 8.90045 8.89689
19 Ar 8.97887 0.0678337 -0.0474312
20 Ar 8.92908 0.0535918 4.58357
21 Ar 9.04841 0.0833473 9.05269
22 Ar 8.87555 4.48203 -0.0175258
23 Ar 8.92898 4.47635 4.56221
24 Ar 8.74707 4.58851 8.90611
25 Ar 8.82475 8.72336 0.105863
26 Ar 8.79169 8.9033 4.14306
27 Ar 8.69597 8.83607 9.05797
28 Ar 0.0792801 2.25542 2.2934
29 Ar -0.00933078 2.00729 6.78153
30 Ar -0.109942 2.2533 11.1416
31 Ar 0.0172702 7.02074 2.00862
32 Ar 0.0708917 6.83718 6.81359
33 Ar -0.047345 6.66683 11.1182
34 Ar -0.00643555 10.9405 2.23276
35 Ar -0.24638 10.9241 6.78601
36 Ar 0.0235698 10.9653 11.127
37 Ar 4.35133 2.21142 2.12541
38 Ar 4.40713 2.03564 6.68659
39 Ar 4.45013 2.12809 11.1016
40 Ar 4.44701 6.7107 2.08905
41 Ar 4.34479 6.79713 6.72337
42 Ar 4.43769 6.80569 10.93
43 Ar 4.3544 11.1629 2.32572
44 Ar 4.57585 11.1258 6.93811
45 Ar 4.64125 11.0837 11.2265
46 Ar 8.79858 2.22888 2.18006
47 Ar 8.95433 2.17479 6.76877
48 Ar 9.03757 2.37042 11.1495
49 Ar 8.71742 6.55527 2.16301
50 Ar 8.86958 6.66109 6.64147
51 Ar 8.9792 6.59852 11.0182
52 Ar 8.77698 11.2515 2.21681
53 Ar 8.83079 11.0465 6.6541
54 Ar 9.00377 11.1354 11.321
55 Ar 2.01065 -0.0527682 2.22199
56 Ar 2.1742 -0.226043 6.65658
57 Ar 2.04666 0.0923129 11.0757
58 Ar 2.16756 4.53976 1.91231
59 Ar 2.19836 4.62434 6.59383
60 Ar 2.46202 4.47022 11.1033
61 Ar 2.26157 8.91433 2.13089
62 Ar 2.28563 9.09118 6.57647
63 Ar 2.36074 8.8158 11.1225
64 Ar 6.63247 0.0741053 2.18517
65 Ar 6.56045 -0.107054 6.96596
66 Ar 6.73342 0.227178 11.1224
67 Ar 6.62492 4.35055 2.19369
68 Ar 6.50662 4.38237 6.57104
69 Ar 6.67175 4.33136 11.1384
70 Ar 6.53389 8.90722 2.21836
71 Ar 6.70374 8.79711 6.70086
72 Ar 6.70467 8.88818 11.2104
73 Ar 11.1134 -0.0415774 2.45265
74 Ar 11.0491 -0.0390113 6.79696
75 Ar 11.2007 -0.0919327 11.1158
76 Ar 10.9348 4.48608 2.10219
77 Ar 11.2579 4.5628 6.61831
78 Ar 11.0544 4.58795 11.0507
79 Ar 10.9372 8.80507 2.24873
80 Ar 10.9116 8.94537 6.4246
81 Ar 11.0403 8.76876 11.1976
82 Ar 2.28559 2.26753 0.0445364
83 Ar 2.26686 2.24605 4.37101
84 Ar 2.12702 2.21046 8.81831
85 Ar 2.18984 6.86141 -0.095356
86 Ar 2.25164 6.88401 4.35802
87 Ar 2.39659 6.79285 8.77261
88 Ar 2.22696 11.0969 -0.105564
89 Ar 2.23048 11.2982 4.34294
90 Ar 2.23304 10.959 8.89519
91 Ar 6.76447 2.24372 -0.0850972
92 Ar 6.70628 2.00262 4.61827
93 Ar 6.65992 2.39778 8.90222
94 Ar 6.66534 6.60122 -0.298998
95 Ar 6.48888 6.42726 4.51121
96 Ar 6.74685 6.49073 8.8402
97 Ar 6.85756 11.1917 0.0321512
98 Ar 6.68828 11.1926 4.47476
99 Ar 6.83436 11.1829 9.17304
100 Ar 11.1869 2.36037 0.0287453
101 Ar 11.3672 2.33674 4.44339
102 Ar 11.1547 2.28212 8.74657
103 Ar 11.1892 6.64654 -0.0244154
104 Ar 11.2456 6.64695 4.51911
105 Ar 11.3355 6.78943 8.84209
106 Ar 11.0958 11.0648 0.0840799
107 Ar 11.0617 11.0391 4.3204
108 Ar 10.9206 10.8353 8.94619
ITEM: TIMESTEP
90070
ITEM: NUMBER OF ATOMS
108
ITEM: BOX BOUNDS pp pp pp
0.0000000000000000e+00 1.3349999400000000e+01
0.0000000000000000e+00 1.3349999400000000e+01
0.0000000000000000e+00 1.3349999400000000e+01
ITEM: ATOMS id element xu yu zu
1 Ar -0.0927975 0.11047 0.153788
2 Ar 0.0390745 -0.0752192 4.5903
3 Ar -0.0516421 -0.141061 9.03656
4 Ar 0.0413517 4.53317 -0.0329562
5 Ar 0.183239 4.55178 4.36565
6 Ar 0.0723435 4.46859 8.87576
7 Ar 0.0832993 8.99126 0.0252686
8 Ar -0.0702604 8.82883 4.65918
9 Ar 0.17519 8.83208 9.05128
10 Ar 4.40064 -0.107257 -0.0540056
11 Ar 4.48192 -0.0528577 4.46759
12 Ar 4.42209 0.0918937 8.95764
13 Ar 4.49532 4.40905 -0.122974
14 Ar 4.37498 4.4153 4.35354
15 Ar 4.38022 4.58342 8.97742
16 Ar 4.54745 8.8199 0.0204704
17 Ar 4.72658 8.9561 4.48376
18 Ar 4.60667 8.9003 8.90502
19 Ar 8.98103 0.0664085 -0.0334277
20 Ar 8.92408 0.047648 4.5836
21 Ar 9.05206 0.0658221 9.05336
22 Ar 8.86927 4.49201 -0.025708
23 Ar 8.93207 4.47568 4.55694
24 Ar 8.74525 4.58131 8.91617
25 Ar 8.82301 8.73433 0.111812
26 Ar 8.77363 8.87658 4.16281
27 Ar 8.70672 8.86018 9.04991
28 Ar 0.0647032 2.24866 2.29097
29 Ar 0.0138003 2.0069 6.79126
30 Ar -0.116587 2.26545 11.1478
31 Ar 0.022845 7.02168 2.01037
32 Ar 0.0873697 6.83212 6.83083
33 Ar -0.0675285 6.67393 11.1278
34 Ar -0.0131918 10.9355 2.23379
35 Ar -0.246457 10.9383 6.81029
36 Ar 0.0250136 10.9648 11.1179
37 Ar 4.34758 2.21409 2.10646
38 Ar 4.41335 2.05553 6.68068
39 Ar 4.43539 2.11723 11.1031
40 Ar 4.46192 6.70024 2.104
41 Ar 4.34507 6.80039 6.73073
42 Ar 4.43345 6.80007 10.9268
43 Ar 4.35464 11.1324 2.32868
44 Ar 4.59215 11.1208 6.94266
45 Ar 4.65142 11.0829 11.2131
46 Ar 8.78538 2.22866 2.16848
47 Ar 8.96842 2.18482 6.74927
48 Ar 9.03847 2.34948 11.1811
49 Ar 8.70143 6.56165 2.13117
50 Ar 8.85076 6.6596 6.63138
51 Ar 8.9829 6.59553 11.0133
52 Ar 8.76038 11.2579 2.22034
53 Ar 8.82589 11.0593 6.63593
54 Ar 9.00722 11.1498 11.313
55 Ar 2.01026 -0.0404837 2.21644
56 Ar 2.17018 -0.242922 6.67887
57 Ar 2.04693 0.0978477 11.073
58 Ar 2.17327 4.53923 1.90941
59 Ar 2.19356 4.62471 6.58179
60 Ar 2.46671 4.47335 11.1175
61 Ar 2.25896 8.91826 2.11722
62 Ar 2.28592 9.08963 6.53945
63 Ar 2.36005 8.81692 11.1298
64 Ar 6.64347 0.0860448 2.18931
65 Ar 6.57294 -0.0992386 6.96291
66 Ar 6.74163 0.243625 11.1427
67 Ar 6.62989 4.36 2.19361
68 Ar 6.5323 4.39906 6.56214
69 Ar 6.67521 4.32939 11.1327
70 Ar 6.53567 8.87841 2.21047
71 Ar 6.71103 8.81785 6.70284
72 Ar 6.69895 8.91357 11.1985
73 Ar 11.1126 -0.031624 2.41402
74 Ar 11.0568 -0.0405512 6.79481
75 Ar 11.1898 -0.0993237 11.1042
76 Ar 10.9533 4.46614 2.11028
77 Ar 11.2608 4.56649 6.63773
78 Ar 11.0534 4.59168 11.0581
79 Ar 10.9417 8.7808 2.23947
80 Ar 10.9257 8.94327 6.43199
81 Ar 11.0368 8.76693 11.1876
82 Ar 2.29086 2.26681 0.0487546
83 Ar 2.26042 2.25834 4.33964
84 Ar 2.1203 2.23414 8.83062
85 Ar 2.16241 6.8483 -0.0937351
86 Ar 2.2858 6.88557 4.38462
87 Ar 2.39655 6.77293 8.78436
88 Ar 2.23981 11.0852 -0.087244
89 Ar 2.23604 11.2988 4.31283
90 Ar 2.23144 10.9617 8.90237
91 Ar 6.77428 2.23783 -0.0950308
92 Ar 6.68119 2.01189 4.60923
93 Ar 6.66267 2.38661 8.90269
94 Ar 6.65416 6.61146 -0.318537
95 Ar 6.48908 6.43366 4.51965
96 Ar 6.7483 6.48914 8.8377
97 Ar 6.85114 11.1751 0.0390305
98 Ar 6.68172 11.1902 4.47287
99 Ar 6.82099 11.1846 9.17341
100 Ar 11.2059 2.34404 0.0231855
101 Ar 11.3775 2.34327 4.44907
102 Ar 11.1657 2.26091 8.75922
103 Ar 11.1858 6.65605 -0.046008
104 Ar 11.237 6.66642 4.50922
105 Ar 11.324 6.78706 8.85626
106 Ar 11.0881 11.0781 0.0838889
107 Ar 11.0548 11.0355 4.33059
108 Ar 10.9375 10.823 8.95444
ITEM: TIMESTEP
90080
ITEM: NUMBER OF ATOMS
108
ITEM: BOX BOUNDS pp pp pp
0.0000000000000000e+00 1.3349999400000000e+01
0.0000000000000000e+00 1.3349999400000000e+01
0.0000000000000000e+00 1.3349999400000000e+01
ITEM: ATOMS id element xu yu zu
1 Ar -0.0712821 0.112859 0.15829
2 Ar 0.0245851 -0.0710489 4.5663
3 Ar -0.0575694 -0.119373 9.04377
4 Ar 0.030625 4.55275 0.00067186
5 Ar 0.180821 4.53989 4.35095
6 Ar 0.0666862 4.47459 8.87362
7 Ar 0.0859605 8.96681 0.0382171
8 Ar -0.0883853 8.83963 4.68222
9 Ar 0.177915 8.83502 9.05415
10 Ar 4.40541 -0.12725 -0.040656
11 Ar 4.47108 -0.0410612 4.45884
12 Ar 4.415 0.0781853 8.95888
13 Ar 4.48818 4.41512 -0.0994602
14 Ar 4.36164 4.41982 4.33469
15 Ar 4.36778 4.58352 8.96701
16 Ar 4.55588 8.78772 0.0159914
17 Ar 4.72107 8.95525 4.47423
18 Ar 4.61716 8.90146 8.91328
19 Ar 8.98413 0.0656253 -0.0185088
20 Ar 8.91935 0.0413539 4.58266
21 Ar 9.05336 0.0474241 9.05306
22 Ar 8.86303 4.50184 -0.0345734
23 Ar 8.93501 4.47327 4.55003
24 Ar 8.74902 4.56966 8.92358
25 Ar 8.82169 8.74705 0.116103
26 Ar 8.75433 8.84861 4.18639
27 Ar 8.71955 8.88335 9.03941
28 Ar 0.0488404 2.24312 2.28729
29 Ar 0.037973 2.00905 6.79866
30 Ar -0.122032 2.27864 11.1533
31 Ar 0.0273664 7.01688 2.01741
32 Ar 0.104056 6.82595 6.84566
33 Ar -0.0846513 6.68055 11.1374
34 Ar -0.0208742 10.9322 2.2359
35 Ar -0.244511 10.9547 6.83421
36 Ar 0.0253012 10.9661 11.1098
37 Ar 4.34602 2.21595 2.08913
38 Ar 4.41786 2.07825 6.67479
39 Ar 4.4196 2.10796 11.1051