ITEM: TIMESTEP
34000
ITEM: NUMBER OF ATOMS
108
ITEM: BOX BOUNDS pp pp pp
0.0000000000000000e+00 1.3349999400000000e+01
0.0000000000000000e+00 1.3349999400000000e+01
0.0000000000000000e+00 1.3349999400000000e+01
ITEM: ATOMS id element xu yu zu
1 Ar 0.130617 0.0340791 -0.0570144
2 Ar -0.0399257 -0.0943961 4.54215
3 Ar -0.170006 -0.0433514 8.77048
4 Ar 0.175327 4.51329 0.0238815
5 Ar -0.132289 4.62481 4.59942
6 Ar -0.00972743 4.54192 8.92007
7 Ar 0.0840649 8.93854 -0.0834639
8 Ar -0.104753 8.87037 4.57053
9 Ar 0.0226368 9.02781 8.69325
10 Ar 4.26465 -0.163214 -0.0389066
11 Ar 4.51206 0.163179 4.49949
12 Ar 4.68209 -0.0164049 8.69461
13 Ar 4.46387 4.39267 0.0975531
14 Ar 4.48518 4.27486 4.50569
15 Ar 4.6309 4.40792 8.93218
16 Ar 4.37086 9.00492 -0.0694777
17 Ar 4.50754 8.91597 4.51209
18 Ar 4.48566 8.70812 8.92871
19 Ar 9.03133 0.0353664 0.0975764
20 Ar 8.98138 0.0494007 4.26201
21 Ar 8.85779 0.0217377 8.92992
22 Ar 8.92273 4.30146 -0.0632554
23 Ar 8.79284 4.39157 4.5825
24 Ar 8.92637 4.35005 9.03829
25 Ar 8.98991 8.96494 0.23272
26 Ar 8.66601 8.66294 4.56621
27 Ar 8.97035 8.88762 8.93837
28 Ar -0.0346426 2.42016 2.30323
29 Ar -0.0903151 2.22277 6.78413
30 Ar 0.0536468 2.41601 11.0627
31 Ar 0.0357262 6.84114 2.22498
32 Ar 0.043763 6.62939 6.66849
33 Ar 0.0720298 6.65174 11.0024
34 Ar -0.0588056 10.8962 2.14378
35 Ar 0.110022 11.2574 6.6425
36 Ar 0.0344383 11.2734 11.1232
37 Ar 4.55921 2.21552 1.93845
38 Ar 4.53372 2.25912 6.68675
39 Ar 4.50471 2.23391 11.199
40 Ar 4.50319 6.74548 2.04071
41 Ar 4.4792 6.59079 6.72445
42 Ar 4.41092 6.62258 11.2706
43 Ar 4.43853 11.1696 2.26675
44 Ar 4.30636 11.2782 6.708
45 Ar 4.35806 11.0204 11.045
46 Ar 9.07795 2.27444 2.27447
47 Ar 8.98553 2.08211 6.7037
48 Ar 8.94833 2.24873 11.3341
49 Ar 9.00366 6.77692 2.16443
50 Ar 8.82439 6.5647 6.86643
51 Ar 8.89961 6.80636 11.2494
52 Ar 8.68655 11.0262 2.35272
53 Ar 8.88219 11.0904 6.53334
54 Ar 8.77152 11.179 11.0833
55 Ar 2.11923 0.0753374 2.25939
56 Ar 2.15534 -0.0115724 6.69983
57 Ar 2.31366 0.0254913 10.8632
58 Ar 2.1718 4.43539 2.37449
59 Ar 2.1691 4.49865 6.68689
60 Ar 2.43526 4.27835 11.0377
61 Ar 2.27057 8.90081 2.18931
62 Ar 2.47076 8.8436 6.73833
63 Ar 2.12258 8.9307 10.948
64 Ar 6.63311 -0.0566024 2.25892
65 Ar 6.8282 0.161584 6.56239
66 Ar 6.69421 0.0983109 11.4478
67 Ar 6.7432 4.57277 2.18757
68 Ar 6.69712 4.33841 6.73185
69 Ar 6.67753 4.4246 11.236
70 Ar 6.52541 8.951 2.28319
71 Ar 6.62952 8.80643 6.81688
72 Ar 6.5701 8.94696 11.0406
73 Ar 11.1907 -0.0715553 2.25148
74 Ar 11.0064 -0.274842 6.57293
75 Ar 11.1375 0.0584444 11.0885
76 Ar 11.2952 4.49737 2.17943
77 Ar 11.0149 4.5077 6.81209
78 Ar 11.191 4.52144 11.2346
79 Ar 10.9427 8.68023 2.415
80 Ar 10.7988 8.97643 6.67642
81 Ar 11.2796 9.05222 11.066
82 Ar 2.11732 2.15508 -0.0998437
83 Ar 2.2156 2.27381 4.38974
84 Ar 2.31501 2.25666 8.64604
85 Ar 2.11959 6.61341 0.121523
86 Ar 2.22192 6.78038 4.28735
87 Ar 2.26616 6.63481 8.78078
88 Ar 2.15967 11.1702 -0.154882
89 Ar 2.25389 11.1868 4.41914
90 Ar 2.32927 11.1051 8.88653
91 Ar 6.68651 1.98938 -0.00144171
92 Ar 6.79146 2.16836 4.32212
93 Ar 6.6502 2.17389 8.85801
94 Ar 6.71423 6.75086 -0.16776
95 Ar 6.47947 6.71026 4.38591
96 Ar 6.74667 6.60218 8.87014
97 Ar 6.59915 11.0927 0.0371565
98 Ar 6.57702 11.1537 4.55965
99 Ar 6.5417 11.1229 8.74843
100 Ar 11.3129 2.13566 0.029382
101 Ar 11.2656 2.22232 4.51439
102 Ar 11.0871 2.22199 8.9757
103 Ar 11.2174 6.82772 0.011627
104 Ar 11.144 6.65009 4.50537
105 Ar 11.0858 6.65645 9.05119
106 Ar 10.9749 11.2087 -0.140524
107 Ar 10.9139 11.0786 4.36358
108 Ar 11.0431 11.0814 8.86943
ITEM: TIMESTEP
34010
ITEM: NUMBER OF ATOMS
108
ITEM: BOX BOUNDS pp pp pp
0.0000000000000000e+00 1.3349999400000000e+01
0.0000000000000000e+00 1.3349999400000000e+01
0.0000000000000000e+00 1.3349999400000000e+01
ITEM: ATOMS id element xu yu zu
1 Ar 0.12541 0.0431517 -0.0316642
2 Ar -0.0266527 -0.078235 4.51873
3 Ar -0.154727 -0.0655615 8.76735
4 Ar 0.14898 4.5213 0.00625638
5 Ar -0.130015 4.64174 4.57509
6 Ar -0.0253911 4.55461 8.91819
7 Ar 0.0967817 8.91871 -0.0764418
8 Ar -0.102709 8.86949 4.5638
9 Ar 0.026631 9.0262 8.69646
10 Ar 4.26453 -0.170261 -0.0486139
11 Ar 4.51361 0.163643 4.4852
12 Ar 4.68934 0.0139238 8.68573
13 Ar 4.4638 4.41344 0.0879065
14 Ar 4.47916 4.29468 4.49311
15 Ar 4.61632 4.41946 8.93345
16 Ar 4.37722 8.99082 -0.0785006
17 Ar 4.50266 8.92421 4.51165
18 Ar 4.49433 8.71625 8.93479
19 Ar 9.03425 0.0217059 0.0900142
20 Ar 8.96462 0.041952 4.27272
21 Ar 8.85429 0.0326019 8.92464
22 Ar 8.95896 4.30282 -0.0567326
23 Ar 8.79437 4.39156 4.59458
24 Ar 8.9218 4.34875 9.0293
25 Ar 8.97173 8.97863 0.251625
26 Ar 8.65877 8.68054 4.56405
27 Ar 8.96237 8.89688 8.94353
28 Ar -0.0119021 2.40537 2.28905
29 Ar -0.0953285 2.22463 6.7953
30 Ar 0.0531449 2.37398 11.0665
31 Ar 0.0388344 6.83235 2.21961
32 Ar 0.0423209 6.6273 6.64658
33 Ar 0.0531849 6.6567 10.9887
34 Ar -0.0751002 10.8994 2.15961
35 Ar 0.115264 11.2711 6.62127
36 Ar 0.045672 11.2924 11.1288
37 Ar 4.55943 2.19233 1.94053
38 Ar 4.52179 2.25305 6.69639
39 Ar 4.49837 2.24112 11.2008
40 Ar 4.47596 6.74274 2.03989
41 Ar 4.47999 6.55886 6.73258
42 Ar 4.42826 6.62291 11.2668
43 Ar 4.42037 11.1505 2.23885
44 Ar 4.30867 11.2561 6.70353
45 Ar 4.36644 11.0276 11.0449
46 Ar 9.09274 2.28833 2.30304
47 Ar 8.98397 2.07367 6.70514
48 Ar 8.93935 2.26205 11.3549
49 Ar 8.99593 6.78725 2.17218
50 Ar 8.84096 6.53537 6.88124
51 Ar 8.90942 6.81739 11.2612
52 Ar 8.68341 11.0215 2.34786
53 Ar 8.88833 11.1093 6.53926
54 Ar 8.7772 11.1727 11.092
55 Ar 2.12871 0.0760663 2.26184
56 Ar 2.15491 -0.000597722 6.69746
57 Ar 2.30682 0.020623 10.8617
58 Ar 2.17883 4.42937 2.38177
59 Ar 2.18423 4.48445 6.69344
60 Ar 2.4342 4.29084 11.0201
61 Ar 2.2669 8.88877 2.19971
62 Ar 2.47229 8.84716 6.70543
63 Ar 2.13318 8.92337 10.9407
64 Ar 6.61527 -0.0752635 2.27535
65 Ar 6.79737 0.162125 6.55555
66 Ar 6.68248 0.0745445 11.434
67 Ar 6.74733 4.5674 2.19378
68 Ar 6.68922 4.33725 6.72206
69 Ar 6.67394 4.44049 11.2293
70 Ar 6.51673 8.94832 2.27398
71 Ar 6.62291 8.83192 6.82542
72 Ar 6.56985 8.92966 11.0687
73 Ar 11.1662 -0.0582863 2.25562
74 Ar 11.0144 -0.275982 6.57231
75 Ar 11.1372 0.089904 11.0994
76 Ar 11.3045 4.50697 2.16596
77 Ar 10.9842 4.48891 6.8289
78 Ar 11.1856 4.5313 11.2501
79 Ar 10.9434 8.67922 2.42132
80 Ar 10.8236 8.98073 6.65927
81 Ar 11.2806 9.04976 11.0483
82 Ar 2.11323 2.1473 -0.102595
83 Ar 2.22607 2.2759 4.38667
84 Ar 2.3144 2.26785 8.67411
85 Ar 2.12766 6.62727 0.100482
86 Ar 2.19286 6.78658 4.2798
87 Ar 2.29283 6.62893 8.77123
88 Ar 2.1485 11.1732 -0.150421
89 Ar 2.2592 11.1702 4.42132
90 Ar 2.31447 11.0967 8.90267
91 Ar 6.69877 1.99022 -0.00430128
92 Ar 6.77013 2.14503 4.31006
93 Ar 6.65285 2.17945 8.86129
94 Ar 6.72307 6.73617 -0.168447
95 Ar 6.49237 6.70973 4.38901
96 Ar 6.76184 6.59414 8.87553
97 Ar 6.61423 11.0867 0.0328135
98 Ar 6.59165 11.1457 4.55962
99 Ar 6.54537 11.1055 8.7588
100 Ar 11.3113 2.12437 0.0218145
101 Ar 11.2563 2.24513 4.53411
102 Ar 11.1008 2.20357 8.98741
103 Ar 11.2118 6.84193 0.0211322
104 Ar 11.176 6.65884 4.51211
105 Ar 11.101 6.66729 9.03808
106 Ar 10.9767 11.2158 -0.125862
107 Ar 10.9071 11.0743 4.3783
108 Ar 11.0373 11.0941 8.85093
ITEM: TIMESTEP
34020
ITEM: NUMBER OF ATOMS
108
ITEM: BOX BOUNDS pp pp pp
0.0000000000000000e+00 1.3349999400000000e+01
0.0000000000000000e+00 1.3349999400000000e+01
0.0000000000000000e+00 1.3349999400000000e+01
ITEM: ATOMS id element xu yu zu
1 Ar 0.11779 0.0508177 -0.00581674
2 Ar -0.0136217 -0.0604585 4.49277
3 Ar -0.137981 -0.0865248 8.76655
4 Ar 0.121092 4.5285 -0.0122721
5 Ar -0.125203 4.65471 4.54943
6 Ar -0.0406389 4.56524 8.91554
7 Ar 0.108088 8.89907 -0.0699297
8 Ar -0.0993609 8.87082 4.55769
9 Ar 0.0296848 9.0232 8.69972
10 Ar 4.26568 -0.175485 -0.058098
11 Ar 4.51287 0.162725 4.47005
12 Ar 4.69335 0.0449328 8.68116
13 Ar 4.46309 4.43508 0.0771258
14 Ar 4.47349 4.31641 4.47868
15 Ar 4.60015 4.43152 8.93481
16 Ar 4.38297 8.9757 -0.0871206
17 Ar 4.49638 8.93263 4.51097
18 Ar 4.50244 8.72559 8.94117
19 Ar 9.03515 0.00763878 0.0834346
20 Ar 8.94698 0.0341541 4.28519
21 Ar 8.85038 0.042311 8.92037
22 Ar 8.99508 4.30799 -0.0465627
23 Ar 8.798 4.39338 4.60456
24 Ar 8.91638 4.34749 9.0215
25 Ar 8.9517 8.99275 0.265296
26 Ar 8.6527 8.6995 4.5613
27 Ar 8.95191 8.90646 8.94971
28 Ar 0.01139 2.38736 2.27494
29 Ar -0.0999448 2.2271 6.80488
30 Ar 0.0525129 2.32986 11.0691
31 Ar 0.0403897 6.82235 2.21461
32 Ar 0.0398672 6.62828 6.62705
33 Ar 0.0355606 6.66276 10.9771
34 Ar -0.0918592 10.9048 2.17634
35 Ar 0.118835 11.2796 6.60014
36 Ar 0.0554994 11.3101 11.1327
37 Ar 4.55711 2.16863 1.94685
38 Ar 4.50876 2.24696 6.70439
39 Ar 4.49245 2.24617 11.2015
40 Ar 4.44831 6.7387 2.04079
41 Ar 4.48136 6.52655 6.73847
42 Ar 4.44432 6.62371 11.2613
43 Ar 4.40097 11.1319 2.21131
44 Ar 4.31333 11.2321 6.6969
45 Ar 4.37689 11.037 11.0446
46 Ar 9.10658 2.30296 2.32985
47 Ar 8.98339 2.06763 6.70593
48 Ar 8.93051 2.27318 11.3712
49 Ar 8.98334 6.79076 2.18085
50 Ar 8.85825 6.50779 6.89291
51 Ar 8.92059 6.82783 11.2717
52 Ar 8.68239 11.018 2.34244
53 Ar 8.89005 11.1288 6.5474
54 Ar 8.78302 11.1656 11.1009
55 Ar 2.13886 0.0756942 2.26437
56 Ar 2.15626 0.0125831 6.69442
57 Ar 2.29955 0.017429 10.8605
58 Ar 2.18742 4.42435 2.38697
59 Ar 2.20019 4.46946 6.69778
60 Ar 2.43035 4.30631 11.0033
61 Ar 2.26353 8.87914 2.21007
62 Ar 2.47026 8.85137 6.67123
63 Ar 2.14421 8.91426 10.9353
64 Ar 6.59823 -0.0937757 2.29009
65 Ar 6.76617 0.159503 6.54887
66 Ar 6.67033 0.0464085 11.413
67 Ar 6.75177 4.56079 2.19955
68 Ar 6.68211 4.33661 6.7112
69 Ar 6.67094 4.45572 11.2218
70 Ar 6.50927 8.94442 2.26337
71 Ar 6.61662 8.85783 6.83216
72 Ar 6.57195 8.91245 11.0973
73 Ar 11.1437 -0.0451706 2.25913
74 Ar 11.0237 -0.272839 6.57267
75 Ar 11.137 0.119938 11.1104
76 Ar 11.3106 4.51784 2.15274
77 Ar 10.9556 4.46913 6.84447
78 Ar 11.1798 4.54045 11.2652
79 Ar 10.949 8.68485 2.42715
80 Ar 10.8534 8.98216 6.64172
81 Ar 11.2805 9.046 11.0319
82 Ar 2.11167 2.1412 -0.103845
83 Ar 2.23563 2.27665 4.38615
84 Ar 2.31287 2.27818 8.70541
85 Ar 2.13829 6.642 0.0766554
86 Ar 2.16601 6.79136 4.27562
87 Ar 2.31863 6.62291 8.76471
88 Ar 2.13783 11.1748 -0.143676
89 Ar 2.26403 11.1525 4.42289
90 Ar 2.29824 11.0891 8.91741
91 Ar 6.7119 1.99669 -0.00302396
92 Ar 6.74795 2.12426 4.29812
93 Ar 6.65788 2.18568 8.86754
94 Ar 6.73176 6.72183 -0.16515
95 Ar 6.50636 6.70643 4.39323
96 Ar 6.77585 6.58624 8.88429
97 Ar 6.63009 11.0809 0.0277995
98 Ar 6.60606 11.1376 4.55989
99 Ar 6.55184 11.0885 8.77079
100 Ar 11.3091 2.11502 0.0144803
101 Ar 11.2458 2.26814 4.55366
102 Ar 11.1145 2.18579 8.99852
103 Ar 11.2062 6.85457 0.0291055
104 Ar 11.2043 6.66703 4.52023
105 Ar 11.1162 6.67937 9.02331
106 Ar 10.9816 11.2212 -0.109132
107 Ar 10.9035 11.0682 4.39184
108 Ar 11.0322 11.1081 8.83335
ITEM: TIMESTEP
34030
ITEM: NUMBER OF ATOMS
108
ITEM: BOX BOUNDS pp pp pp
0.0000000000000000e+00 1.3349999400000000e+01
0.0000000000000000e+00 1.3349999400000000e+01
0.0000000000000000e+00 1.3349999400000000e+01
ITEM: ATOMS id element xu yu zu
1 Ar 0.10785 0.0567134 0.020419
2 Ar -0.00109434 -0.0411979 4.46465
3 Ar -0.119992 -0.105994 8.76799
4 Ar 0.0925487 4.53487 -0.0315107
5 Ar -0.117799 4.66308 4.52283
6 Ar -0.0552365 4.57353 8.9122
7 Ar 0.117789 8.88019 -0.0640702
8 Ar -0.0946549 8.87453 4.55211
9 Ar 0.0318823 9.01896 8.70277
10 Ar 4.26813 -0.178824 -0.0673046
11 Ar 4.50946 0.160023 4.45442
12 Ar 4.69397 0.0753986 8.68093
13 Ar 4.46173 4.45678 0.0656691
14 Ar 4.4683 4.33967 4.46264
15 Ar 4.58301 4.44367 8.93624
16 Ar 4.38792 8.95988 -0.0952374
17 Ar 4.4892 8.94076 4.5098
18 Ar 4.50984 8.73589 8.94756
19 Ar 9.03364 -0.00645902 0.0779358
20 Ar 8.92872 0.0260969 4.29928
21 Ar 8.84603 0.0506731 8.9173
22 Ar 9.03044 4.31701 -0.0326419
23 Ar 8.80351 4.39694 4.61229
24 Ar 8.91027 4.34599 9.01542
25 Ar 8.93033 9.00685 0.273572
26 Ar 8.64798 8.71947 4.55827
27 Ar 8.93939 8.91615 8.95639
28 Ar 0.0345246 2.36668 2.26111
29 Ar -0.103954 2.23017 6.81283
30 Ar 0.0519112 2.28458 11.0704
31 Ar 0.0404569 6.81124 2.20967
32 Ar 0.0367761 6.63206 6.61048
33 Ar 0.0195376 6.67001 10.9675
34 Ar -0.108836 10.9122 2.19367
35 Ar 0.120782 11.2828 6.57923
36 Ar 0.0633988 11.3263 11.135
37 Ar 4.55232 2.14513 1.95671
38 Ar 4.49474 2.24135 6.71037
39 Ar 4.48713 2.2491 11.2013
40 Ar 4.42086 6.73341 2.04361
41 Ar 4.48351 6.49485 6.74183
42 Ar 4.45895 6.625 11.254
43 Ar 4.38059 11.1137 2.18441
44 Ar 4.32016 11.2072 6.68877
45 Ar 4.38917 11.0484 11.0442
46 Ar 9.11928 2.31809 2.35457
47 Ar 8.98341 2.06374 6.70606
48 Ar 8.92178 2.28199 11.3825
49 Ar 8.96633 6.7877 2.19051
50 Ar 8.87585 6.48302 6.90119
51 Ar 8.93316 6.83759 11.2806
52 Ar 8.68361 11.0162 2.33678
53 Ar 8.88744 11.1485 6.55784
54 Ar 8.78921 11.158 11.1096
55 Ar 2.14977 0.0740124 2.26691
56 Ar 2.15956 0.0276921 6.69079
57 Ar 2.29217 0.0159314 10.8597
58 Ar 2.19736 4.42045 2.38957
59 Ar 2.21635 4.4538 6.69982
60 Ar 2.4234 4.32457 10.9876
61 Ar 2.26033 8.87216 2.22004
62 Ar 2.46471 8.85582 6.63665
63 Ar 2.15551 8.90344 10.9318
64 Ar 6.58227 -0.112184 2.30256
65 Ar 6.7351 0.153819 6.54255
66 Ar 6.6579 0.0149412 11.3857
67 Ar 6.75638 4.55295 2.20475
68 Ar 6.6757 4.33624 6.69943
69 Ar 6.66882 4.46996 11.2138
70 Ar 6.50287 8.93922 2.2516
71 Ar 6.61081 8.88331 6.83686
72 Ar 6.57642 8.89563 11.1258
73 Ar 11.1233 -0.0323363 2.26232
74 Ar 11.0342 -0.265167 6.57377
75 Ar 11.1368 0.147615 11.1213
76 Ar 11.3137 4.52961 2.14006
77 Ar 10.93 4.44844 6.85853
78 Ar 11.1736 4.54873 11.2795
79 Ar 10.9592 8.69679 2.43234
80 Ar 10.8872 8.98087 6.62432
81 Ar 11.2795 9.04142 11.0169
82 Ar 2.11278 2.13716 -0.103736
83 Ar 2.24424 2.27612 4.38824
84 Ar 2.31028 2.2874 8.73945
85 Ar 2.15098 6.65701 0.0502355
86 Ar 2.14186 6.79453 4.27504
87 Ar 2.34288 6.61707 8.76114
88 Ar 2.12782 11.1749 -0.134699
89 Ar 2.26832 11.1344 4.4237
90 Ar 2.28109 11.0824 8.9302
91 Ar 6.72561 2.00805 0.00203905
92 Ar 6.72532 2.10674 4.2865
93 Ar 6.6652 2.19282 8.87663
94 Ar 6.74025 6.7078 -0.157586
95 Ar 6.52115 6.70069 4.39853
96 Ar 6.78851 6.57884 8.89607
97 Ar 6.64633 11.0755 0.0222659
98 Ar 6.61985 11.1296 4.56034
99 Ar 6.56079 11.0726 8.78448
100 Ar 11.3062 2.10791 0.00780862
101 Ar 11.2343 2.29109 4.57268
102 Ar 11.1279 2.16907 9.00882
103 Ar 11.2006 6.86581 0.0355168
104 Ar 11.228 6.67458 4.5295
105 Ar 11.1309 6.69257 9.00694
106 Ar 10.9897 11.2244 -0.0907169
107 Ar 10.9032 11.0607 4.40388
108 Ar 11.0278 11.1229 8.81713
ITEM: TIMESTEP
34040
ITEM: NUMBER OF ATOMS
108
ITEM: BOX BOUNDS pp pp pp
0.0000000000000000e+00 1.3349999400000000e+01
0.0000000000000000e+00 1.3349999400000000e+01
0.0000000000000000e+00 1.3349999400000000e+01
ITEM: ATOMS id element xu yu zu
1 Ar 0.0957797 0.0605269 0.0469004
2 Ar 0.0106901 -0.0206632 4.43488
3 Ar -0.100988 -0.123747 8.77148
4 Ar 0.0642207 4.54042 -0.0512391
5 Ar -0.10783 4.66642 4.49573
6 Ar -0.0689653 4.57929 8.90822
7 Ar 0.125716 8.86259 -0.0589576
8 Ar -0.0885409 8.88071 4.54692
9 Ar 0.0333261 9.01361 8.70542
10 Ar 4.2719 -0.180239 -0.0761773
11 Ar 4.50305 0.155159 4.43869
12 Ar 4.69109 0.10421 8.68506
13 Ar 4.45976 4.47782 0.0539328
14 Ar 4.46369 4.36403 4.44522
15 Ar 4.56554 4.45545 8.93774
16 Ar 4.39192 8.94365 -0.102762
17 Ar 4.48166 8.94811 4.50789
18 Ar 4.5164 8.74691 8.95369
19 Ar 9.02944 -0.0202535 0.0735426
20 Ar 8.91014 0.0178909 4.31477
21 Ar 8.84125 0.057542 8.91556
22 Ar 9.0644 4.32976 -0.0150544
23 Ar 8.81066 4.40214 4.61762
24 Ar 8.90367 4.34404 9.01152
25 Ar 8.90819 9.02039 0.276458
26 Ar 8.64475 8.74015 4.55525
27 Ar 8.92528 8.92575 8.9631
28 Ar 0.0568523 2.34402 2.24776
29 Ar -0.107146 2.23381 6.81915
30 Ar 0.0515272 2.23899 11.0703
31 Ar 0.0391793 6.79916 2.20452
32 Ar 0.0334276 6.63824 6.59737
33 Ar 0.00542113 6.67845 10.9601
34 Ar -0.125738 10.9214 2.21131
35 Ar 0.121187 11.281 6.5586
36 Ar 0.0689334 11.3406 11.136
37 Ar 4.54519 2.12252 1.96941
38 Ar 4.4799 2.23668 6.71406
39 Ar 4.48255 2.25004 11.2004
40 Ar 4.39414 6.72695 2.04857
41 Ar 4.48664 6.46472 6.74247
42 Ar 4.47209 6.6268 11.2448
43 Ar 4.35958 11.0962 2.15835
44 Ar 4.32894 11.1821 6.67985
45 Ar 4.40294 11.0616 11.0436
46 Ar 9.13061 2.33345 2.37694
47 Ar 8.98358 2.06176 6.70554
48 Ar 8.91314 2.28847 11.3888
49 Ar 8.94566 6.77871 2.20118
50 Ar 8.89328 6.46203 6.90594
51 Ar 8.94708 6.84658 11.288
52 Ar 8.68711 11.0161 2.33121
53 Ar 8.8808 11.1679 6.57058
54 Ar 8.79599 11.1498 11.1181
55 Ar 2.16153 0.070825 2.26937
56 Ar 2.16483 0.0443508 6.68665
57 Ar 2.28501 0.0160687 10.8595
58 Ar 2.20839 4.41772 2.38916
59 Ar 2.23213 4.43763 6.69955
60 Ar 2.41314 4.34537 10.9737
61 Ar 2.25712 8.86795 2.22934
62 Ar 2.45567 8.86011 6.60262
63 Ar 2.16695 8.89107 10.9305
64 Ar 6.56765 -0.130546 2.31223
65 Ar 6.70466 0.145269 6.53679
66 Ar 6.64537 -0.0186965 11.3529
67 Ar 6.76096 4.54389 2.20925
68 Ar 6.66996 4.33586 6.68695
69 Ar 6.66778 4.48288 11.2054
70 Ar 6.49738 8.93264 2.239
71 Ar 6.60561 8.90754 6.83933
72 Ar 6.58326 8.87944 11.1539
73 Ar 11.105 -0.0198852 2.26548
74 Ar 11.0462 -0.252869 6.57533
75 Ar 11.1364 0.172007 11.1319
76 Ar 11.3138 4.54189 2.12822
77 Ar 10.9083 4.42692 6.87087
78 Ar 11.1673 4.556 11.2921
79 Ar 10.9733 8.71435 2.4367
80 Ar 10.9241 8.97714 6.60766
81 Ar 11.2776 9.0365 11.0038
82 Ar 2.11661 2.13544 -0.102437
83 Ar 2.25185 2.27443 4.39293
84 Ar 2.30651 2.29532 8.77564
85 Ar 2.16523 6.67174 0.0214835
86 Ar 2.12084 6.7959 4.27814
87 Ar 2.36498 6.61175 8.76037
88 Ar 2.11858 11.1733 -0.12362
89 Ar 2.27199 11.1163 4.42359
90 Ar 2.26356 11.0766 8.94053
91 Ar 6.73956 2.02345 0.0104073
92 Ar 6.70267 2.09304 4.27539
93 Ar 6.67463 2.20107 8.88832
94 Ar 6.74852 6.69402 -0.145632
95 Ar 6.53647 6.6929 4.40489
96 Ar 6.79967 6.57224 8.91041
97 Ar 6.66245 11.0706 0.016381
98 Ar 6.63268 11.1216 4.5608
99 Ar 6.57189 11.0584 8.79991
100 Ar 11.3025 2.10333 0.0022084
101 Ar 11.2224 2.31369 4.5908
102 Ar 11.1407 2.15377 9.01807
103 Ar 11.1948 6.87585 0.0404149
104 Ar 11.2465 6.6814 4.53959
105 Ar 11.1448 6.70677 8.98905
106 Ar 11.001 11.2254 -0.0710022
107 Ar 10.9059 11.0524 4.41423
108 Ar 11.0242 11.1382 8.80262
ITEM: TIMESTEP
34050
ITEM: NUMBER OF ATOMS
108
ITEM: BOX BOUNDS pp pp pp
0.0000000000000000e+00 1.3349999400000000e+01
0.0000000000000000e+00 1.3349999400000000e+01
0.0000000000000000e+00 1.3349999400000000e+01
ITEM: ATOMS id element xu yu zu
1 Ar 0.0818507 0.062013 0.0734439
2 Ar 0.0215151 0.000866205 4.40408
3 Ar -0.0812111 -0.139589 8.77669
4 Ar 0.0369387 4.54511 -0.0712095
5 Ar -0.0954217 4.6645 4.46855
6 Ar -0.0816305 4.5824 8.90369
7 Ar 0.131729 8.84675 -0.0546415
8 Ar -0.0809843 8.88929 4.54193
9 Ar 0.0341376 9.00734 8.70756
10 Ar 4.27703 -0.17972 -0.0846578
11 Ar 4.49344 0.147798 4.42324
12 Ar 4.68472 0.130438 8.69346
13 Ar 4.45723 4.49754 0.0422387
14 Ar 4.45974 4.38908 4.42664
15 Ar 4.54835 4.46635 8.93932
16 Ar 4.39486 8.92733 -0.109616
17 Ar 4.47435 8.95423 4.50495
18 Ar 4.52201 8.75845 8.95933
19 Ar 9.02237 -0.0334635 0.0702229
20 Ar 8.89154 0.0096691 4.33143
21 Ar 8.83608 0.062824 8.91525
22 Ar 9.09634 4.34596 0.00591676
23 Ar 8.81923 4.40887 4.62047
24 Ar 8.89679 4.3415 9.01015
25 Ar 8.88594 9.03279 0.274121
26 Ar 8.64316 8.76117 4.55243
27 Ar 8.91003 8.93504 8.96939
28 Ar 0.0778097 2.32011 2.23503
29 Ar -0.109316 2.23795 6.82384
30 Ar 0.0515568 2.19396 11.0691
31 Ar 0.0367709 6.78626 2.19893
32 Ar 0.0301853 6.64633 6.58808
33 Ar -0.00657385 6.68802 10.955
34 Ar -0.142223 10.9324 2.22896
35 Ar 0.120167 11.2746 6.53837
36 Ar 0.07177 11.3526 11.1361
37 Ar 4.53589 2.10141 1.98427
38 Ar 4.46448 2.23334 6.71528
39 Ar 4.47885 2.2492 11.1989
40 Ar 4.36866 6.71945 2.05579
41 Ar 4.49085 6.4371 6.74026
42 Ar 4.48372 6.62911 11.2337
43 Ar 4.33831 11.0794 2.13334
44 Ar 4.33942 11.1576 6.67078
45 Ar 4.4178 11.0761 11.0429
46 Ar 9.14039 2.34877 2.39678
47 Ar 8.98343 2.06137 6.70442
48 Ar 8.90458 2.29276 11.3902
49 Ar 8.92225 6.76471 2.21286
50 Ar 8.91005 6.44563 6.90714
51 Ar 8.96222 6.85472 11.2936
52 Ar 8.69291 11.0179 2.32601
53 Ar 8.87062 11.1867 6.58553
54 Ar 8.80363 11.1412 11.1262
55 Ar 2.17418 0.0659575 2.27162
56 Ar 2.17198 0.0620967 6.6821
57 Ar 2.2784 0.0176859 10.8601
58 Ar 2.22019 4.41612 2.38542
59 Ar 2.24696 4.42113 6.69705
60 Ar 2.39944 4.36843 10.9621
61 Ar 2.25367 8.86647 2.23768
62 Ar 2.44324 8.86385 6.57006
63 Ar 2.1784 8.8774 10.9313
64 Ar 6.5546 -0.148902 2.31872
65 Ar 6.67522 0.134132 6.5318
66 Ar 6.63294 -0.053332 11.3156
67 Ar 6.7653 4.53359 2.21298
68 Ar 6.66487 4.33521 6.67398
69 Ar 6.66798 4.49419 11.1969
70 Ar 6.49265 8.92469 2.22587
71 Ar 6.60111 8.92979 6.83944
72 Ar 6.5924 8.86412 11.181
73 Ar 11.0889 -0.00789328 2.26891
74 Ar 11.0595 -0.236007 6.57707
75 Ar 11.1357 0.19223 11.1422
76 Ar 11.3115 4.5543 2.11757
77 Ar 10.8912 4.4047 6.88141
78 Ar 11.1609 4.56214 11.3024
79 Ar 10.9904 8.73661 2.43996
80 Ar 10.963 8.97132 6.59229
81 Ar 11.2751 9.03166 10.9927
82 Ar 2.12308 2.13621 -0.100147
83 Ar 2.25845 2.27175 4.40007
84 Ar 2.30148 2.30183 8.81333
85 Ar 2.18051 6.6857 -0.00926758
86 Ar 2.1033 6.79535 4.28488
87 Ar 2.38437 6.60728 8.76211
88 Ar 2.11018 11.1701 -0.110649
89 Ar 2.27496 11.0987 4.42246
90 Ar 2.24615 11.0718 8.94807
91 Ar 6.75341 2.04202 0.0215681
92 Ar 6.68038 2.08357 4.26501
93 Ar 6.68593 2.21052 8.90229
94 Ar 6.75651 6.68043 -0.129333
95 Ar 6.55212 6.68351 4.41226
96 Ar 6.80924 6.56676 8.92678
97 Ar 6.67797 11.0664 0.01032
98 Ar 6.64421 11.1137 4.56107
99 Ar 6.58476 11.0466 8.81708
100 Ar 11.2981 2.1015 -0.00195605
101 Ar 11.2105 2.33566 4.60766
102 Ar 11.1525 2.14021 9.02601
103 Ar 11.1887 6.88493 0.0439169
104 Ar 11.2594 6.68737 4.5501
105 Ar 11.1575 6.72181 8.9697
106 Ar 11.0155 11.2239 -0.0503623
107 Ar 10.9115 11.0438 4.42289
108 Ar 11.0215 11.1537 8.79011
ITEM: TIMESTEP
34060
ITEM: NUMBER OF ATOMS
108
ITEM: BOX BOUNDS pp pp pp
0.0000000000000000e+00 1.3349999400000000e+01
0.0000000000000000e+00 1.3349999400000000e+01
0.0000000000000000e+00 1.3349999400000000e+01
ITEM: ATOMS id element xu yu zu
1 Ar 0.0664063 0.0610029 0.0998201
2 Ar 0.031187 0.0230542 4.37294
3 Ar -0.0609116 -0.153355 8.78319
4 Ar 0.0114662 4.54891 -0.0911482
5 Ar -0.0808016 4.65732 4.44174
6 Ar -0.0930675 4.58285 8.89871
7 Ar 0.135721 8.83306 -0.0511301
8 Ar -0.0719786 8.90005 4.53693
9 Ar 0.0344571 9.00032 8.70916
10 Ar 4.2835 -0.177283 -0.0926853
11 Ar 4.48057 0.137665 4.40846
12 Ar 4.67492 0.153386 8.70599
13 Ar 4.45422 4.51536 0.0308313
14 Ar 4.45648 4.4144 4.40711
15 Ar 4.53205 4.47589 8.941
16 Ar 4.39671 8.91122 -0.115734
17 Ar 4.4678 8.95872 4.50074
18 Ar 4.52664 8.77033 8.96427
19 Ar 9.01237 -0.0458645 0.0679029
20 Ar 8.87321 0.00158531 4.34897
21 Ar 8.8306 0.0664814 8.91638
22 Ar 9.12563 4.36518 0.0297959
23 Ar 8.829 4.41704 4.62081
24 Ar 8.88986 4.33834 9.0115
25 Ar 8.86424 9.04347 0.266872
26 Ar 8.64334 8.78222 4.54994
27 Ar 8.89412 8.9438 8.97486
28 Ar 0.0969366 2.29575 2.22306
29 Ar -0.110266 2.2425 6.82693
30 Ar 0.0521786 2.15026 11.0668
31 Ar 0.0335034 6.77274 2.19276
32 Ar 0.0273754 6.65581 6.58277
33 Ar -0.0163326 6.69858 10.9522
34 Ar -0.15791 10.945 2.24636
35 Ar 0.117857 11.2641 6.51866
36 Ar 0.0716921 11.3621 11.1355
37 Ar 4.52462 2.08233 2.00064
38 Ar 4.44879 2.23163 6.71398
39 Ar 4.47611 2.24686 11.1971
40 Ar 4.34483 6.71107 2.06534
41 Ar 4.49615 6.41282 6.73518
42 Ar 4.49395 6.63192 11.2208
43 Ar 4.31722 11.0636 2.10954
44 Ar 4.3513 11.1344 6.66214
45 Ar 4.43325 11.0914 11.042
46 Ar 9.14844 2.36373 2.41397
47 Ar 8.98246 2.06226 6.70275
48 Ar 8.89609 2.29507 11.3868
49 Ar 8.89714 6.74678 2.2255
50 Ar 8.92571 6.43443 6.90488
51 Ar 8.97839 6.86189 11.2975
52 Ar 8.70098 11.0218 2.32141
53 Ar 8.85754 11.2045 6.60255
54 Ar 8.8124 11.1324 11.1338
55 Ar 2.18774 0.0592681 2.27348
56 Ar 2.18078 0.0804054 6.67722
57 Ar 2.27265 0.0205278 10.8618
58 Ar 2.23245 4.41555 2.37812
59 Ar 2.26033 4.40449 6.69247
60 Ar 2.38229 4.39341 10.9533
61 Ar 2.24975 8.86754 2.24486
62 Ar 2.42757 8.86673 6.53983
63 Ar 2.18974 8.86278 10.9343
64 Ar 6.54328 -0.16725 2.32172
65 Ar 6.64708 0.120751 6.52778
66 Ar 6.62089 -0.0878547 11.275
67 Ar 6.76916 4.52203 2.21589
68 Ar 6.66045 4.33404 6.66075
69 Ar 6.66953 4.50367 11.1886
70 Ar 6.48853 8.91542 2.21257
71 Ar 6.59743 8.9494 6.83712
72 Ar 6.60371 8.84986 11.2069
73 Ar 11.0747 0.00358849 2.27284
74 Ar 11.0742 -0.2148 6.57874
75 Ar 11.1344 0.207492 11.1521
76 Ar 11.3069 4.56648 2.10849
77 Ar 10.8791 4.382 6.89014
78 Ar 11.1544 4.56708 11.3097
79 Ar 11.0096 8.7625 2.44182
80 Ar 11.0029 8.96381 6.57873
81 Ar 11.2719 9.02729 10.9838
82 Ar 2.13204 2.1395 -0.097075
83 Ar 2.26402 2.26834 4.40941
84 Ar 2.29515 2.30687 8.85178
85 Ar 2.19633 6.69848 -0.0416104
86 Ar 2.08947 6.79278 4.2951
87 Ar 2.40061 6.604 8.76601
88 Ar 2.10264 11.1653 -0.0960747
89 Ar 2.27717 11.0822 4.42022
90 Ar 2.22939 11.0679 8.95256
91 Ar 6.76685 2.06299 0.0350381
92 Ar 6.65882 2.07856 4.25557
93 Ar 6.69874 2.22114 8.91816
94 Ar 6.76418 6.66697 -0.108908
95 Ar 6.56789 6.67298 4.42057
96 Ar 6.8172 6.56266 8.94458
97 Ar 6.69236 11.0634 0.00425406
98 Ar 6.65415 11.1059 4.56092
99 Ar 6.59905 11.0376 8.83591
100 Ar 11.2927 2.10259 -0.0043904
101 Ar 11.199 2.3567 4.62291
102 Ar 11.1633 2.12864 9.03242
103 Ar 11.1822 6.8933 0.0461946
104 Ar 11.2664 6.69235 4.56058
105 Ar 11.1686 6.73751 8.94903
106 Ar 11.0331 11.2199 -0.0291582
107 Ar 10.9195 11.0354 4.43001
108 Ar 11.0196 11.1689 8.77978
ITEM: TIMESTEP
34070
ITEM: NUMBER OF ATOMS
108
ITEM: BOX BOUNDS pp pp pp
0.0000000000000000e+00 1.3349999400000000e+01
0.0000000000000000e+00 1.3349999400000000e+01
0.0000000000000000e+00 1.3349999400000000e+01
ITEM: ATOMS id element xu yu zu
1 Ar 0.0498381 0.0574098 0.125753
2 Ar 0.0395366 0.0455228 4.34218
3 Ar -0.0403534 -0.164906 8.79049
4 Ar -0.0115239 4.55176 -0.110761
5 Ar -0.0642881 4.64505 4.41576
6 Ar -0.103144 4.58071 8.89342
7 Ar 0.137626 8.82186 -0.0483969
8 Ar -0.0615576 8.91264 4.53164
9 Ar 0.0344413 8.99274 8.71023
10 Ar 4.29131 -0.172973 -0.100198
11 Ar 4.46454 0.12456 4.39472
12 Ar 4.66187 0.172601 8.72233
13 Ar 4.4508 4.53083 0.0198809
14 Ar 4.45392 4.43957 4.38685
15 Ar 4.51713 4.48361 8.9428
16 Ar 4.39747 8.8956 -0.121063
17 Ar 4.46247 8.96119 4.49505
18 Ar 4.53027 8.78238 8.96834
19 Ar 8.99952 -0.0572849 0.066482
20 Ar 8.85543 -0.00619033 4.36711
21 Ar 8.82492 0.0685333 8.91893
22 Ar 9.15171 4.38688 0.0559332
23 Ar 8.83976 4.42656 4.61867
24 Ar 8.88315 4.33465 9.01561
25 Ar 8.84379 9.0519 0.255155
26 Ar 8.64541 8.80292 4.54787
27 Ar 8.87801 8.95184 8.97922
28 Ar 0.113885 2.27176 2.21194
29 Ar -0.109809 2.24733 6.82846
30 Ar 0.0535239 2.10861 11.0638
31 Ar 0.0296897 6.75884 2.18592
32 Ar 0.0252703 6.66611 6.58149
33 Ar -0.0238468 6.70997 10.9514
34 Ar -0.172372 10.9593 2.26328
35 Ar 0.1144 11.2504 6.49964
36 Ar 0.0686073 11.3688 11.1347
37 Ar 4.51161 2.06576 2.01791
38 Ar 4.43322 2.23172 6.71025
39 Ar 4.47443 2.24334 11.1951
40 Ar 4.32298 6.70205 2.0772
41 Ar 4.5025 6.3926 6.72732
42 Ar 4.50293 6.63522 11.2061
43 Ar 4.29679 11.0487 2.0871
44 Ar 4.36425 11.1131 6.65445
45 Ar 4.44871 11.1071 11.0411
46 Ar 9.15462 2.378 2.42843
47 Ar 8.98021 2.06415 6.70064
48 Ar 8.88773 2.29566 11.3791
49 Ar 8.87135 6.72604 2.23905
50 Ar 8.93984 6.42882 6.89935
51 Ar 8.9953 6.86795 11.2996
52 Ar 8.71125 11.0276 2.31757
53 Ar 8.84227 11.2211 6.62141
54 Ar 8.82256 11.1234 11.141
55 Ar 2.20214 0.0506584 2.27476
56 Ar 2.19095 0.0987127 6.67212
57 Ar 2.26805 0.0242396 10.8647
58 Ar 2.2448 4.41581 2.36713
59 Ar 2.27179 4.38797 6.68606
60 Ar 2.3618 4.41997 10.9475
61 Ar 2.2451 8.87084 2.2507
62 Ar 2.40889 8.86852 6.51272
63 Ar 2.20086 8.84763 10.9392
64 Ar 6.5338 -0.185526 2.3211
65 Ar 6.62039 0.105527 6.52495
66 Ar 6.6095 -0.121249 11.2319
67 Ar 6.77227 4.50921 2.21795
68 Ar 6.65679 4.33211 6.6475
69 Ar 6.67245 4.51117 11.1808
70 Ar 6.48492 8.90494 2.19942
71 Ar 6.59462 8.96583 6.83242
72 Ar 6.61703 8.83679 11.2312
73 Ar 11.0623 0.0145314 2.27747
74 Ar 11.09 -0.189608 6.58011
75 Ar 11.1323 0.217145 11.1617
76 Ar 11.3005 4.57815 2.10137
77 Ar 10.8726 4.35912 6.89716
78 Ar 11.1478 4.57074 11.3135
79 Ar 11.03 8.79089 2.442
80 Ar 11.0431 8.95506 6.56744
81 Ar 11.2683 9.02373 10.9771
82 Ar 2.14323 2.14527 -0.0934333
83 Ar 2.26855 2.26447 4.4206
84 Ar 2.28755 2.31048 8.89025
85 Ar 2.2122 6.70971 -0.0750611
86 Ar 2.07947 6.78816 4.30848
87 Ar 2.41333 6.60216 8.77164
88 Ar 2.09593 11.1591 -0.0802599
89 Ar 2.27858 11.0674 4.4168
90 Ar 2.21374 11.0648 8.9539
91 Ar 6.77959 2.08569 0.0503873
92 Ar 6.63828 2.07805 4.24725
93 Ar 6.7126 2.23283 8.93548
94 Ar 6.77147 6.65356 -0.0847424
95 Ar 6.58364 6.66176 4.42977
96 Ar 6.82356 6.56016 8.96321
97 Ar 6.7051 11.0616 -0.00165906
98 Ar 6.66225 11.0983 4.56011
99 Ar 6.61436 11.0317 8.85625
100 Ar 11.2864 2.1067 -0.00489288
101 Ar 11.1882 2.37655 4.63622
102 Ar 11.1727 2.1192 9.03712
103 Ar 11.1753 6.9012 0.0474581
104 Ar 11.2675 6.69614 4.57056
105 Ar 11.1779 6.75362 8.92721
106 Ar 11.0533 11.2133 -0.0077354
107 Ar 10.9296 11.0278 4.43587
108 Ar 11.0186 11.1837 8.77177
ITEM: TIMESTEP
34080
ITEM: NUMBER OF ATOMS
108
ITEM: BOX BOUNDS pp pp pp
0.0000000000000000e+00 1.3349999400000000e+01
0.0000000000000000e+00 1.3349999400000000e+01
0.0000000000000000e+00 1.3349999400000000e+01
ITEM: ATOMS id element xu yu zu
1 Ar 0.0325607 0.0512315 0.150922
2 Ar 0.0464235 0.0678674 4.31258
3 Ar -0.0198106 -0.174132 8.79806
4 Ar -0.0314732 4.55363 -0.129741
5 Ar -0.0462651 4.62806 4.39103
6 Ar -0.111761 4.57616 8.88798
7 Ar 0.137426 8.81338 -0.0463866
8 Ar -0.0498072 8.92654 4.52575
9 Ar 0.03426 8.98481 8.71088
10 Ar 4.30043 -0.166861 -0.107132
11 Ar 4.44565 0.108375 4.38235
12 Ar 4.6458 0.187871 8.74205
13 Ar 4.44708 4.54361 0.00949092
14 Ar 4.45205 4.46417 4.36609
15 Ar 4.50401 4.48912 8.94474
16 Ar 4.39724 8.88071 -0.125561
17 Ar 4.45871 8.96136 4.48777
18 Ar 4.53294 8.79452 8.97139
19 Ar 8.98403 -0.0675966 0.0658447
20 Ar 8.83845 -0.0134792 4.38554
21 Ar 8.81918 0.0690547 8.92283
22 Ar 9.17404 4.41049 0.0835318
23 Ar 8.85133 4.43731 4.61416
24 Ar 8.87698 4.33064 9.02229
25 Ar 8.82522 9.05765 0.239527
26 Ar 8.64949 8.82297 4.54625
27 Ar 8.86216 8.95894 8.98218
28 Ar 0.12842 2.24895 2.20172
29 Ar -0.107771 2.25232 6.82848
30 Ar 0.0556445 2.06964 11.0605
31 Ar 0.0256653 6.74479 2.17842
32 Ar 0.0240759 6.67663 6.58406
33 Ar -0.0292144 6.72195 10.9526
34 Ar -0.185158 10.9752 2.2795
35 Ar 0.10994 11.2342 6.48154
36 Ar 0.0625475 11.3726 11.134
37 Ar 4.49714 2.05206 2.03556
38 Ar 4.41819 2.23365 6.70428