ITEM: TIMESTEP
46000
ITEM: NUMBER OF ATOMS
108
ITEM: BOX BOUNDS pp pp pp
0.0000000000000000e+00 1.3349999400000000e+01
0.0000000000000000e+00 1.3349999400000000e+01
0.0000000000000000e+00 1.3349999400000000e+01
ITEM: ATOMS id element xu yu zu
1 Ar 0.0781516 -0.0692012 -0.0210522
2 Ar -0.0611675 0.00449237 4.33352
3 Ar -0.00117072 0.0158841 8.77736
4 Ar 0.187349 4.53143 -0.225493
5 Ar 0.0347167 4.48454 4.44332
6 Ar -0.119217 4.48819 8.91445
7 Ar 0.0232588 8.7639 0.0123842
8 Ar -0.0993637 8.73539 4.75368
9 Ar -0.0565034 8.99624 8.63934
10 Ar 4.464 0.265791 -0.0119631
11 Ar 4.47719 0.0584492 4.42512
12 Ar 4.52587 0.117393 8.93693
13 Ar 4.6335 4.5337 0.11829
14 Ar 4.51249 4.47692 4.45666
15 Ar 4.36119 4.40195 8.99519
16 Ar 4.42643 8.93156 -0.078329
17 Ar 4.34856 8.7823 4.41598
18 Ar 4.52385 8.66783 8.95268
19 Ar 8.98221 -0.0843741 0.0495774
20 Ar 8.74334 -0.109828 4.44731
21 Ar 8.62868 -0.223907 8.86151
22 Ar 9.05886 4.56691 0.137047
23 Ar 8.97938 4.58651 4.52179
24 Ar 8.84878 4.37143 8.8192
25 Ar 8.78442 8.87965 0.0413562
26 Ar 8.87237 9.02119 4.37658
27 Ar 8.66353 8.91094 8.87143
28 Ar -0.141137 2.26694 2.23458
29 Ar 0.0704241 2.21666 6.72509
30 Ar -0.0778129 2.07584 10.9738
31 Ar -0.060021 6.86218 2.33262
32 Ar 0.0374994 6.39941 6.74978
33 Ar 0.130708 6.92098 10.9522
34 Ar -0.0287654 11.0189 2.33499
35 Ar 0.0737618 11.2401 6.75487
36 Ar 0.0738608 11.1306 10.9004
37 Ar 4.55407 2.41318 2.25563
38 Ar 4.51773 2.21906 6.72304
39 Ar 4.31964 2.40544 11.4029
40 Ar 4.38654 6.7221 2.19824
41 Ar 4.57471 6.68366 6.5823
42 Ar 4.47652 6.50644 11.1769
43 Ar 4.41473 10.9834 2.26034
44 Ar 4.45336 11.1483 6.51617
45 Ar 4.38722 11.088 11.215
46 Ar 9.1247 2.1444 2.09563
47 Ar 9.02544 2.17085 6.58499
48 Ar 8.86995 2.12512 11.3477
49 Ar 9.15523 6.7893 2.39018
50 Ar 8.8282 6.67868 6.63302
51 Ar 8.91483 6.7304 11.1638
52 Ar 8.86767 11.0566 2.13189
53 Ar 8.87155 11.2257 6.52915
54 Ar 8.90211 11.0865 11.1486
55 Ar 2.2746 -0.121419 2.23607
56 Ar 2.16095 0.231952 6.46508
57 Ar 2.24978 -0.112237 11.2463
58 Ar 2.3466 4.58396 2.09101
59 Ar 2.37973 4.41601 6.76724
60 Ar 2.20866 4.37159 11.1688
61 Ar 2.26319 8.78478 2.34328
62 Ar 2.25601 8.75723 6.59025
63 Ar 2.1934 8.94103 11.1608
64 Ar 6.45946 0.0245282 2.21077
65 Ar 6.51226 -0.0128394 6.76029
66 Ar 6.63523 0.164502 11.3207
67 Ar 6.78391 4.5154 2.3246
68 Ar 6.82288 4.41677 6.71587
69 Ar 6.62945 4.30457 11.1137
70 Ar 6.73631 8.87007 2.18988
71 Ar 6.77984 9.0297 6.5278
72 Ar 6.61537 8.86655 11.0772
73 Ar 11.2324 0.00291753 2.06368
74 Ar 11.0438 0.0914784 6.65652
75 Ar 11.0362 -0.13544 11.1047
76 Ar 11.2211 4.73069 2.14371
77 Ar 11.1597 4.28168 6.88389
78 Ar 11.0856 4.35914 11.0961
79 Ar 11.1423 8.88094 2.21762
80 Ar 11.1483 8.75979 6.78684
81 Ar 11.0866 9.10699 10.8673
82 Ar 2.12399 2.3244 0.0913554
83 Ar 2.14121 2.28438 4.11827
84 Ar 2.2408 2.26599 9.08787
85 Ar 2.3106 6.7549 -0.0712631
86 Ar 2.21508 6.60106 4.52761
87 Ar 2.22148 6.57799 8.93721
88 Ar 2.13887 11.0287 0.144672
89 Ar 2.14347 11.2686 4.42022
90 Ar 2.30185 10.9991 8.83957
91 Ar 6.68874 2.31593 0.150097
92 Ar 6.79589 2.24225 4.34125
93 Ar 6.68332 2.1435 8.95122
94 Ar 6.70052 6.69537 0.113081
95 Ar 6.6854 6.56909 4.38938
96 Ar 6.61301 6.56509 8.97929
97 Ar 6.61506 11.2108 0.0908812
98 Ar 6.57745 10.9917 4.32006
99 Ar 6.38986 11.1185 8.91957
100 Ar 11.2538 2.26105 -0.131978
101 Ar 11.1646 2.33914 4.49097
102 Ar 11.0161 2.00508 8.9918
103 Ar 11.1964 6.95024 -0.151418
104 Ar 11.1124 6.5746 4.77157
105 Ar 11.0457 6.66213 9.00106
106 Ar 11.1796 11.0215 -0.156881
107 Ar 11.1768 11.0381 4.38953
108 Ar 11.011 11.4163 8.78725
ITEM: TIMESTEP
46010
ITEM: NUMBER OF ATOMS
108
ITEM: BOX BOUNDS pp pp pp
0.0000000000000000e+00 1.3349999400000000e+01
0.0000000000000000e+00 1.3349999400000000e+01
0.0000000000000000e+00 1.3349999400000000e+01
ITEM: ATOMS id element xu yu zu
1 Ar 0.0495095 -0.0755698 -0.00798233
2 Ar -0.0655563 0.016944 4.33079
3 Ar 0.00509563 0.0312086 8.75971
4 Ar 0.172341 4.50666 -0.232524
5 Ar 0.0331735 4.50503 4.44478
6 Ar -0.106275 4.48939 8.92383
7 Ar 0.0298548 8.76199 0.00823791
8 Ar -0.0873145 8.72877 4.76152
9 Ar -0.0544339 9.02659 8.63259
10 Ar 4.43798 0.249051 -7.27554e-05
11 Ar 4.46246 0.0534341 4.4378
12 Ar 4.50123 0.106677 8.93186
13 Ar 4.64934 4.54951 0.105875
14 Ar 4.53394 4.47828 4.45543
15 Ar 4.37455 4.40134 9.01423
16 Ar 4.41334 8.92844 -0.064567
17 Ar 4.33702 8.78477 4.42511
18 Ar 4.52307 8.66355 8.95537
19 Ar 8.98591 -0.104508 0.0489401
20 Ar 8.74696 -0.129595 4.41318
21 Ar 8.61078 -0.209775 8.86913
22 Ar 9.07883 4.55584 0.135203
23 Ar 8.96942 4.58367 4.51171
24 Ar 8.84133 4.38508 8.80749
25 Ar 8.78017 8.88299 0.0317306
26 Ar 8.88097 8.98596 4.36437
27 Ar 8.65243 8.91491 8.86258
28 Ar -0.166937 2.27207 2.23703
29 Ar 0.0751166 2.20422 6.72353
30 Ar -0.0866214 2.09673 10.9695
31 Ar -0.0255387 6.8864 2.36404
32 Ar 0.0617995 6.41106 6.7567
33 Ar 0.123997 6.92934 10.9478
34 Ar -0.0245207 11.0255 2.33104
35 Ar 0.0802506 11.2308 6.76465
36 Ar 0.0857632 11.1417 10.8949
37 Ar 4.55 2.40395 2.24796
38 Ar 4.52226 2.22467 6.73879
39 Ar 4.31819 2.40407 11.411
40 Ar 4.37272 6.72751 2.21034
41 Ar 4.59251 6.66066 6.59366
42 Ar 4.48499 6.51966 11.1958
43 Ar 4.40447 10.9841 2.2697
44 Ar 4.44058 11.1354 6.50286
45 Ar 4.38032 11.0865 11.2136
46 Ar 9.11992 2.1448 2.09654
47 Ar 9.01916 2.1684 6.58823
48 Ar 8.86622 2.11271 11.3442
49 Ar 9.14044 6.75838 2.37928
50 Ar 8.83427 6.68043 6.64202
51 Ar 8.92703 6.73172 11.1641
52 Ar 8.86363 11.0697 2.12287
53 Ar 8.87131 11.2239 6.51646
54 Ar 8.88201 11.0695 11.1365
55 Ar 2.28692 -0.130382 2.23332
56 Ar 2.16307 0.20541 6.47316
57 Ar 2.23591 -0.107548 11.255
58 Ar 2.34349 4.59246 2.06326
59 Ar 2.3656 4.41578 6.77151
60 Ar 2.20058 4.36978 11.1725
61 Ar 2.26934 8.78513 2.33543
62 Ar 2.26244 8.77967 6.58932
63 Ar 2.20745 8.96609 11.1624
64 Ar 6.44719 0.024981 2.20929
65 Ar 6.50977 -0.0125659 6.77593
66 Ar 6.6428 0.174407 11.3307
67 Ar 6.80129 4.53511 2.31651
68 Ar 6.79297 4.42307 6.71116
69 Ar 6.60879 4.29844 11.14
70 Ar 6.74758 8.83078 2.19696
71 Ar 6.77505 9.03006 6.52225
72 Ar 6.62538 8.87064 11.0752
73 Ar 11.2452 0.0128075 2.05381
74 Ar 11.0641 0.0681188 6.65687
75 Ar 11.052 -0.125994 11.1248
76 Ar 11.2241 4.71692 2.14643
77 Ar 11.1574 4.28316 6.86359
78 Ar 11.1084 4.36697 11.1034
79 Ar 11.1523 8.88514 2.19921
80 Ar 11.1309 8.76884 6.77867
81 Ar 11.1004 9.10446 10.8578
82 Ar 2.1332 2.29966 0.10638
83 Ar 2.1236 2.3109 4.11319
84 Ar 2.22766 2.27645 9.10094
85 Ar 2.31115 6.74224 -0.051699
86 Ar 2.22051 6.61066 4.5139
87 Ar 2.21409 6.58015 8.92351
88 Ar 2.13917 11.0117 0.150362
89 Ar 2.14197 11.2785 4.41766
90 Ar 2.29424 11.0262 8.8155
91 Ar 6.68526 2.30531 0.121242
92 Ar 6.78521 2.24378 4.34518
93 Ar 6.69583 2.13451 8.96287
94 Ar 6.70728 6.68305 0.105307
95 Ar 6.71637 6.56635 4.38784
96 Ar 6.57896 6.55022 8.98597
97 Ar 6.62195 11.2095 0.114713
98 Ar 6.58347 10.989 4.32995
99 Ar 6.40806 11.1024 8.90728
100 Ar 11.2745 2.2636 -0.116189
101 Ar 11.1564 2.34392 4.50538
102 Ar 11.0064 2.00203 8.97618
103 Ar 11.1959 6.94667 -0.163678
104 Ar 11.1132 6.59801 4.77342
105 Ar 11.0618 6.64648 9.0118
106 Ar 11.1619 11.0235 -0.177104
107 Ar 11.1825 11.067 4.38943
108 Ar 11.0196 11.4317 8.79279
ITEM: TIMESTEP
46020
ITEM: NUMBER OF ATOMS
108
ITEM: BOX BOUNDS pp pp pp
0.0000000000000000e+00 1.3349999400000000e+01
0.0000000000000000e+00 1.3349999400000000e+01
0.0000000000000000e+00 1.3349999400000000e+01
ITEM: ATOMS id element xu yu zu
1 Ar 0.0207406 -0.0817836 0.00470491
2 Ar -0.070543 0.0301559 4.32953
3 Ar 0.0132487 0.0463936 8.74424
4 Ar 0.152544 4.48381 -0.236282
5 Ar 0.0315096 4.52451 4.44577
6 Ar -0.0913996 4.48822 8.93565
7 Ar 0.0375668 8.764 0.00371433
8 Ar -0.0740403 8.72492 4.76675
9 Ar -0.0506718 9.05443 8.62893
10 Ar 4.41038 0.228286 0.0133404
11 Ar 4.44754 0.0492815 4.45039
12 Ar 4.47296 0.0948105 8.92892
13 Ar 4.66297 4.56493 0.09345
14 Ar 4.55399 4.47852 4.45466
15 Ar 4.39004 4.40039 9.03162
16 Ar 4.40189 8.92448 -0.0495353
17 Ar 4.32826 8.78853 4.43501
18 Ar 4.51989 8.66176 8.9564
19 Ar 8.98828 -0.124103 0.0482357
20 Ar 8.75211 -0.147295 4.37702
21 Ar 8.59455 -0.193076 8.87816
22 Ar 9.09674 4.54466 0.131234
23 Ar 8.95999 4.57703 4.50056
24 Ar 8.83498 4.39867 8.79914
25 Ar 8.77779 8.88681 0.02056
26 Ar 8.89139 8.9497 4.35377
27 Ar 8.64389 8.91929 8.85311
28 Ar -0.1913 2.27859 2.23774
29 Ar 0.0788813 2.19416 6.72092
30 Ar -0.0941472 2.11786 10.9673
31 Ar 0.0095276 6.90727 2.39442
32 Ar 0.0856421 6.4254 6.764
33 Ar 0.114539 6.93508 10.9445
34 Ar -0.0200072 11.0313 2.32527
35 Ar 0.0855167 11.2215 6.77053
36 Ar 0.0963586 11.1527 10.8914
37 Ar 4.54408 2.39343 2.24051
38 Ar 4.52578 2.23163 6.75286
39 Ar 4.31832 2.40011 11.4156
40 Ar 4.36194 6.73269 2.22298
41 Ar 4.6098 6.63743 6.60669
42 Ar 4.49278 6.53475 11.2145
43 Ar 4.3943 10.9859 2.27819
44 Ar 4.42612 11.1217 6.49134
45 Ar 4.37453 11.0866 11.2116
46 Ar 9.11367 2.14664 2.09958
47 Ar 9.00895 2.16561 6.59235
48 Ar 8.86371 2.10248 11.3384
49 Ar 9.12298 6.72716 2.36651
50 Ar 8.83989 6.68325 6.65348
51 Ar 8.93782 6.73173 11.1638
52 Ar 8.86122 11.0844 2.11533
53 Ar 8.87144 11.22 6.50583
54 Ar 8.85893 11.0532 11.1242
55 Ar 2.29878 -0.136482 2.22896
56 Ar 2.16765 0.177542 6.48339
57 Ar 2.22246 -0.10138 11.2618
58 Ar 2.33724 4.60043 2.03755
59 Ar 2.35054 4.41417 6.77393
60 Ar 2.19253 4.37093 11.1752
61 Ar 2.27303 8.7877 2.32683
62 Ar 2.26948 8.80338 6.59067
63 Ar 2.22268 8.99089 11.162
64 Ar 6.43824 0.0249487 2.20812
65 Ar 6.50965 -0.0123445 6.78777
66 Ar 6.64949 0.181137 11.3389
67 Ar 6.81965 4.55383 2.30676
68 Ar 6.76065 4.42806 6.70565
69 Ar 6.59173 4.29403 11.1664
70 Ar 6.75646 8.79129 2.20478
71 Ar 6.76771 9.02798 6.51837
72 Ar 6.63548 8.87502 11.0757
73 Ar 11.2563 0.0204309 2.04613
74 Ar 11.0856 0.0440164 6.65439
75 Ar 11.0687 -0.115131 11.1455
76 Ar 11.2289 4.70063 2.1498
77 Ar 11.1544 4.28607 6.84197
78 Ar 11.1305 4.37638 11.1106
79 Ar 11.1621 8.89103 2.18157
80 Ar 11.1098 8.78088 6.77076
81 Ar 11.1147 9.10006 10.8487
82 Ar 2.14209 2.27302 0.122032
83 Ar 2.10783 2.33735 4.11121
84 Ar 2.21479 2.28456 9.11119
85 Ar 2.31036 6.729 -0.0323978
86 Ar 2.22612 6.61877 4.49981
87 Ar 2.20818 6.58395 8.90929
88 Ar 2.13998 10.9953 0.154641
89 Ar 2.14109 11.2847 4.41685
90 Ar 2.28901 11.0549 8.79113
91 Ar 6.68409 2.295 0.0932153
92 Ar 6.77485 2.24526 4.35074
93 Ar 6.70879 2.12766 8.97447
94 Ar 6.71493 6.67048 0.0960271
95 Ar 6.74695 6.56721 4.38721
96 Ar 6.54747 6.53516 8.9916
97 Ar 6.62801 11.2072 0.136216
98 Ar 6.58975 10.9889 4.33966
99 Ar 6.42715 11.0856 8.89545
100 Ar 11.2947 2.26586 -0.0994359
101 Ar 11.1479 2.34767 4.51795
102 Ar 10.9956 2.00046 8.96045
103 Ar 11.1944 6.93956 -0.176257
104 Ar 11.1151 6.62163 4.77218
105 Ar 11.0776 6.63125 9.02106
106 Ar 11.1454 11.025 -0.194561
107 Ar 11.1872 11.0967 4.39105
108 Ar 11.0286 11.4423 8.79799
ITEM: TIMESTEP
46030
ITEM: NUMBER OF ATOMS
108
ITEM: BOX BOUNDS pp pp pp
0.0000000000000000e+00 1.3349999400000000e+01
0.0000000000000000e+00 1.3349999400000000e+01
0.0000000000000000e+00 1.3349999400000000e+01
ITEM: ATOMS id element xu yu zu
1 Ar -0.00728838 -0.0879222 0.0166567
2 Ar -0.0757538 0.0440364 4.32967
3 Ar 0.0231094 0.0612599 8.73143
4 Ar 0.128614 4.46313 -0.236639
5 Ar 0.0295935 4.54283 4.44636
6 Ar -0.075027 4.48475 8.9492
7 Ar 0.046136 8.76965 -0.00117139
8 Ar -0.0598699 8.7243 4.76959
9 Ar -0.0454868 9.0791 8.62844
10 Ar 4.38193 0.203623 0.0277481
11 Ar 4.43274 0.0462315 4.46276
12 Ar 4.44172 0.0819313 8.92814
13 Ar 4.67397 4.5795 0.0817189
14 Ar 4.57224 4.47766 4.45407
15 Ar 4.40695 4.39895 9.04725
16 Ar 4.39253 8.91978 -0.0334194
17 Ar 4.32253 8.7934 4.44553
18 Ar 4.5143 8.66261 8.9558
19 Ar 8.98931 -0.142612 0.0473555
20 Ar 8.7587 -0.162474 4.33947
21 Ar 8.58066 -0.174437 8.88848
22 Ar 9.11246 4.53328 0.124957
23 Ar 8.95149 4.5667 4.48887
24 Ar 8.82968 4.41205 8.79419
25 Ar 8.77731 8.89097 0.00818593
26 Ar 8.90364 8.91321 4.34478
27 Ar 8.63813 8.92371 8.84313
28 Ar -0.213571 2.28652 2.23708
29 Ar 0.0817548 2.18674 6.71711
30 Ar -0.100427 2.13873 10.9672
31 Ar 0.0441561 6.92437 2.42306
32 Ar 0.10842 6.44232 6.77158
33 Ar 0.10305 6.93846 10.9424
34 Ar -0.0153429 11.0362 2.31786
35 Ar 0.0893186 11.2125 6.77197
36 Ar 0.105485 11.1633 10.8899
37 Ar 4.53656 2.38211 2.23331
38 Ar 4.52806 2.23975 6.76522
39 Ar 4.31971 2.39337 11.4168
40 Ar 4.3546 6.73736 2.23605
41 Ar 4.62604 6.6145 6.62089
42 Ar 4.49948 6.55174 11.2329
43 Ar 4.38467 10.9885 2.28587
44 Ar 4.41052 11.1076 6.48185
45 Ar 4.37023 11.0887 11.2091
46 Ar 9.10593 2.14974 2.10457
47 Ar 8.99501 2.16221 6.59717
48 Ar 8.86297 2.09472 11.3305
49 Ar 9.10381 6.69626 2.35171
50 Ar 8.84491 6.68682 6.6673
51 Ar 8.94696 6.7304 11.1627
52 Ar 8.86055 11.0996 2.10964
53 Ar 8.87194 11.2143 6.49736
54 Ar 8.8335 11.0379 11.1117
55 Ar 2.30973 -0.139534 2.22329
56 Ar 2.17458 0.148985 6.49556
57 Ar 2.2094 -0.0937369 11.2669
58 Ar 2.32803 4.60741 2.01426
59 Ar 2.33504 4.41113 6.77449
60 Ar 2.18478 4.37514 11.1771
61 Ar 2.27439 8.79279 2.3177
62 Ar 2.27713 8.82784 6.59432
63 Ar 2.23859 9.0147 11.1596
64 Ar 6.4325 0.0245693 2.20739
65 Ar 6.51166 -0.0122922 6.79559
66 Ar 6.65475 0.184159 11.3451
67 Ar 6.83841 4.57084 2.29526
68 Ar 6.72681 4.43158 6.69955
69 Ar 6.57891 4.29147 11.1924
70 Ar 6.76285 8.75236 2.21326
71 Ar 6.75794 9.02333 6.51604
72 Ar 6.64527 8.87951 11.0787
73 Ar 11.2649 0.025599 2.04091
74 Ar 11.1076 0.0197805 6.64897
75 Ar 11.086 -0.10296 11.1663
76 Ar 11.2357 4.68254 2.15392
77 Ar 11.151 4.29061 6.81954
78 Ar 11.1513 4.38705 11.1176
79 Ar 11.1712 8.89829 2.16489
80 Ar 11.0856 8.79586 6.76348
81 Ar 11.1292 9.09402 10.84
82 Ar 2.1502 2.24501 0.138102
83 Ar 2.09411 2.36335 4.11224
84 Ar 2.20254 2.29028 9.11845
85 Ar 2.30797 6.71555 -0.0140858
86 Ar 2.23222 6.62518 4.48597
87 Ar 2.20408 6.58945 8.89508
88 Ar 2.14116 10.98 0.157429
89 Ar 2.14052 11.2871 4.41767
90 Ar 2.28634 11.0848 8.76701
91 Ar 6.68502 2.28504 0.066942
92 Ar 6.76492 2.24649 4.35776
93 Ar 6.72168 2.12318 8.98592
94 Ar 6.72359 6.65804 0.0852291
95 Ar 6.77643 6.57165 4.38778
96 Ar 6.51928 6.52021 8.99639
97 Ar 6.63283 11.2038 0.155096
98 Ar 6.59623 10.9913 4.34876
99 Ar 6.44654 11.0687 8.88412
100 Ar 11.3137 2.26783 -0.0822371
101 Ar 11.139 2.35021 4.52855
102 Ar 10.9837 2.0004 8.94485
103 Ar 11.1921 6.92916 -0.188726
104 Ar 11.1179 6.64496 4.76775
105 Ar 11.0928 6.61675 9.02841
106 Ar 11.1304 11.0255 -0.209142
107 Ar 11.1909 11.1266 4.39413
108 Ar 11.0377 11.4483 8.80315
ITEM: TIMESTEP
46040
ITEM: NUMBER OF ATOMS
108
ITEM: BOX BOUNDS pp pp pp
0.0000000000000000e+00 1.3349999400000000e+01
0.0000000000000000e+00 1.3349999400000000e+01
0.0000000000000000e+00 1.3349999400000000e+01
ITEM: ATOMS id element xu yu zu
1 Ar -0.0337151 -0.0940672 0.0275393
2 Ar -0.0807638 0.0584855 4.33113
3 Ar 0.0344173 0.0755976 8.72168
4 Ar 0.101375 4.44484 -0.233534
5 Ar 0.0273002 4.5599 4.44664
6 Ar -0.057594 4.47914 8.96376
7 Ar 0.0552454 8.77855 -0.00641531
8 Ar -0.0451375 8.72729 4.77034
9 Ar -0.0391414 9.10009 8.63113
10 Ar 4.35342 0.175251 0.0425895
11 Ar 4.41835 0.0444818 4.47475
12 Ar 4.40832 0.0682455 8.92943
13 Ar 4.68193 4.59271 0.0713582
14 Ar 4.58839 4.4758 4.45336
15 Ar 4.42454 4.39685 9.0611
16 Ar 4.38559 8.91445 -0.0164235
17 Ar 4.31998 8.79911 4.45645
18 Ar 4.5064 8.66616 8.95363
19 Ar 8.98901 -0.159485 0.0461561
20 Ar 8.76666 -0.174739 4.30123
21 Ar 8.56974 -0.15453 8.89994
22 Ar 9.12592 4.52163 0.116249
23 Ar 8.94422 4.55288 4.47715
24 Ar 8.82536 4.42509 8.79256
25 Ar 8.77872 8.89537 -0.00500116
26 Ar 8.91764 8.87731 4.33734
27 Ar 8.63528 8.92781 8.83279
28 Ar -0.23308 2.29581 2.23547
29 Ar 0.0837919 2.18216 6.71195
30 Ar -0.105507 2.15885 10.9692
31 Ar 0.0773317 6.93742 2.44923
32 Ar 0.129545 6.46164 6.77933
33 Ar 0.0902706 6.93971 10.9415
34 Ar -0.0106424 11.0403 2.30904
35 Ar 0.0914335 11.2043 6.76861
36 Ar 0.113026 11.1737 10.8904
37 Ar 4.5277 2.37045 2.22639
38 Ar 4.52889 2.24875 6.77593
39 Ar 4.322 2.38374 11.4148
40 Ar 4.35099 6.74128 2.24943
41 Ar 4.64062 6.5924 6.63579
42 Ar 4.50472 6.57061 11.2507
43 Ar 4.37601 10.9918 2.29285
44 Ar 4.3944 11.0933 6.47461
45 Ar 4.36775 11.0928 11.206
46 Ar 9.09672 2.15391 2.11127
47 Ar 8.97762 2.158 6.60253
48 Ar 8.86449 2.08962 11.3207
49 Ar 9.08389 6.66624 2.33474
50 Ar 8.84923 6.69075 6.68328
51 Ar 8.95423 6.72773 11.1605
52 Ar 8.86167 11.1147 2.10607
53 Ar 8.87281 11.2069 6.49111
54 Ar 8.80639 11.024 11.099
55 Ar 2.31929 -0.139483 2.21673
56 Ar 2.18366 0.120382 6.50944
57 Ar 2.19673 -0.0846473 11.2702
58 Ar 2.31608 4.61294 1.99374
59 Ar 2.31953 4.40663 6.77323
60 Ar 2.17761 4.38239 11.1785
61 Ar 2.27366 8.80064 2.30826
62 Ar 2.28533 8.85248 6.60021
63 Ar 2.25469 9.03682 11.1551
64 Ar 6.42984 0.0239899 2.20718
65 Ar 6.51548 -0.0125129 6.79933
66 Ar 6.65813 0.18303 11.3494
67 Ar 6.85694 4.58553 2.28203
68 Ar 6.69246 4.43349 6.69314
69 Ar 6.57081 4.29087 11.2173
70 Ar 6.76673 8.71476 2.22221
71 Ar 6.74595 9.01605 6.51514
72 Ar 6.65433 8.88389 11.0841
73 Ar 11.2706 0.0281937 2.03841
74 Ar 11.1295 -0.00399266 6.6406
75 Ar 11.1035 -0.0896039 11.1866
76 Ar 11.2443 4.66336 2.15889
77 Ar 11.1476 4.29689 6.79684
78 Ar 11.1705 4.39866 11.124
79 Ar 11.1795 8.90655 2.14932
80 Ar 11.059 8.81372 6.75712
81 Ar 11.1437 9.08663 10.8316
82 Ar 2.15712 2.21626 0.154324
83 Ar 2.0826 2.38857 4.11616
84 Ar 2.19129 2.29366 9.12263
85 Ar 2.30379 6.70232 0.00255706
86 Ar 2.2391 6.62975 4.47305
87 Ar 2.20209 6.59663 8.88137
88 Ar 2.14263 10.9664 0.158647
89 Ar 2.13995 11.2858 4.41989
90 Ar 2.28629 11.1157 8.74372
91 Ar 6.68781 2.27544 0.0432882
92 Ar 6.75549 2.2473 4.36601
93 Ar 6.73394 2.12129 8.99714
94 Ar 6.73337 6.64613 0.0729163
95 Ar 6.8042 6.57949 4.38986
96 Ar 6.49506 6.50572 9.00059
97 Ar 6.63604 11.199 0.17114
98 Ar 6.60286 10.9957 4.35693
99 Ar 6.46568 11.0519 8.87329
100 Ar 11.3308 2.26946 -0.0651267
101 Ar 11.13 2.35139 4.53708
102 Ar 10.9711 2.00182 8.92958
103 Ar 11.1895 6.91579 -0.200642
104 Ar 11.1214 6.66756 4.7601
105 Ar 11.1075 6.60324 9.03343
106 Ar 11.117 11.0249 -0.220831
107 Ar 11.1936 11.1559 4.39833
108 Ar 11.0465 11.4499 8.80858
ITEM: TIMESTEP
46050
ITEM: NUMBER OF ATOMS
108
ITEM: BOX BOUNDS pp pp pp
0.0000000000000000e+00 1.3349999400000000e+01
0.0000000000000000e+00 1.3349999400000000e+01
0.0000000000000000e+00 1.3349999400000000e+01
ITEM: ATOMS id element xu yu zu
1 Ar -0.0577259 -0.100292 0.0370669
2 Ar -0.0851184 0.0733947 4.33374
3 Ar 0.0468333 0.0891805 8.71529
4 Ar 0.0717849 4.4292 -0.226973
5 Ar 0.0245203 4.57565 4.44675
6 Ar -0.0395223 4.47164 8.9786
7 Ar 0.0645397 8.79024 -0.0120277
8 Ar -0.0301681 8.73418 4.76931
9 Ar -0.0318628 9.117 8.63691
10 Ar 4.32569 0.143412 0.0572903
11 Ar 4.40465 0.0441813 4.48622
12 Ar 4.37363 0.054035 8.93262
13 Ar 4.68644 4.60413 0.0629657
14 Ar 4.60218 4.47304 4.45219
15 Ar 4.44208 4.3939 9.07317
16 Ar 4.38133 8.9086 0.00123436
17 Ar 4.32064 8.80543 4.46753
18 Ar 4.49642 8.67245 8.94999
19 Ar 8.9874 -0.174209 0.0444701
20 Ar 8.77588 -0.183749 4.26303
21 Ar 8.56232 -0.134046 8.91236
22 Ar 9.13711 4.50961 0.105061
23 Ar 8.93841 4.53586 4.46586
24 Ar 8.82193 4.43764 8.79414
25 Ar 8.78199 8.89988 -0.0185845
26 Ar 8.93323 8.84278 4.33138
27 Ar 8.63544 8.93127 8.82228
28 Ar -0.249169 2.30628 2.2334
29 Ar 0.0850512 2.18052 6.70537
30 Ar -0.109433 2.17776 10.973
31 Ar 0.108081 6.94625 2.4722
32 Ar 0.148472 6.48313 6.7871
33 Ar 0.076937 6.93903 10.9419
34 Ar -0.00601755 11.0435 2.29911
35 Ar 0.0916766 11.197 6.76028
36 Ar 0.118913 11.1838 10.8928
37 Ar 4.51778 2.35885 2.21978
38 Ar 4.52814 2.2583 6.78504
39 Ar 4.32488 2.37119 11.4099
40 Ar 4.35121 6.74419 2.263
41 Ar 4.6529 6.57167 6.6509
42 Ar 4.50824 6.59132 11.2675
43 Ar 4.36868 10.9955 2.29923
44 Ar 4.37843 11.0792 6.46977
45 Ar 4.36737 11.0989 11.2024
46 Ar 9.08611 2.15897 2.11944
47 Ar 8.95712 2.15286 6.60826
48 Ar 8.86857 2.08728 11.3092
49 Ar 9.06422 6.63758 2.31552
50 Ar 8.8528 6.69465 6.70112
51 Ar 8.9595 6.7238 11.1572
52 Ar 8.8646 11.1287 2.10477
53 Ar 8.87396 11.1984 6.48706
54 Ar 8.77832 11.012 11.0862
55 Ar 2.32696 -0.136409 2.20982
56 Ar 2.19462 0.0923856 6.52476
57 Ar 2.18442 -0.0741616 11.272
58 Ar 2.30164 4.61656 1.97632
59 Ar 2.30439 4.40071 6.77022
60 Ar 2.17124 4.3926 11.1799
61 Ar 2.27116 8.81132 2.2988
62 Ar 2.29394 8.87675 6.60823
63 Ar 2.27051 9.05665 11.1484
64 Ar 6.43008 0.0233566 2.20755
65 Ar 6.52073 -0.0130937 6.79905
66 Ar 6.65927 0.177435 11.3519
67 Ar 6.87456 4.59734 2.26719
68 Ar 6.6587 4.43363 6.68668
69 Ar 6.5678 4.29232 11.2405
70 Ar 6.76818 8.67925 2.23142
71 Ar 6.73196 9.00617 6.51549
72 Ar 6.66226 8.8879 11.0918
73 Ar 11.273 0.0281821 2.03886
74 Ar 11.1507 -0.0267347 6.62948
75 Ar 11.1211 -0.075202 11.2058
76 Ar 11.2546 4.64383 2.16473
77 Ar 11.1443 4.30502 6.77437
78 Ar 11.1875 4.41091 11.1298
79 Ar 11.1867 8.91543 2.13499
80 Ar 11.0308 8.83434 6.7519
81 Ar 11.1579 9.07814 10.8236
82 Ar 2.16246 2.18745 0.170378
83 Ar 2.07342 2.41269 4.12279
84 Ar 2.18139 2.29481 9.12369
85 Ar 2.29768 6.68977 0.0169289
86 Ar 2.24708 6.63242 4.46168
87 Ar 2.20243 6.60542 8.86866
88 Ar 2.14433 10.9549 0.158218
89 Ar 2.13911 11.2807 4.42322
90 Ar 2.28873 11.1472 8.72183
91 Ar 6.69222 2.26619 0.0230086
92 Ar 6.74661 2.24752 4.37525
93 Ar 6.74502 2.12215 9.008
94 Ar 6.74436 6.63512 0.0591166
95 Ar 6.82969 6.59036 4.39371
96 Ar 6.47537 6.49212 9.00445
97 Ar 6.63738 11.1928 0.18422
98 Ar 6.60958 11.0021 4.36394
99 Ar 6.48408 11.0358 8.86292
100 Ar 11.345 2.27069 -0.0486283
101 Ar 11.1207 2.35104 4.5435
102 Ar 10.958 2.00467 8.91477
103 Ar 11.1867 6.89988 -0.211567
104 Ar 11.1256 6.68904 4.74928
105 Ar 11.1213 6.59094 9.03574
106 Ar 11.1051 11.0229 -0.229709
107 Ar 11.1954 11.184 4.40329
108 Ar 11.0548 11.4475 8.81454
ITEM: TIMESTEP
46060
ITEM: NUMBER OF ATOMS
108
ITEM: BOX BOUNDS pp pp pp
0.0000000000000000e+00 1.3349999400000000e+01
0.0000000000000000e+00 1.3349999400000000e+01
0.0000000000000000e+00 1.3349999400000000e+01
ITEM: ATOMS id element xu yu zu
1 Ar -0.0786042 -0.106649 0.0450322
2 Ar -0.0883556 0.0886464 4.3373
3 Ar 0.0599491 0.101783 8.71242
4 Ar 0.0408734 4.41642 -0.217028
5 Ar 0.0211688 4.59003 4.44685
6 Ar -0.0212105 4.46258 8.993
7 Ar 0.0736458 8.80418 -0.0180342
8 Ar -0.0152646 8.74512 4.76679
9 Ar -0.0238264 9.12962 8.64561
10 Ar 4.29958 0.108396 0.0712825
11 Ar 4.39186 0.0454243 4.497
12 Ar 4.33864 0.0396603 8.93749
13 Ar 4.68718 4.61334 0.0570106
14 Ar 4.61341 4.46954 4.4502
15 Ar 4.45886 4.38994 9.08356
16 Ar 4.3799 8.90237 0.0193289
17 Ar 4.32448 8.81206 4.47846
18 Ar 4.48468 8.68142 8.94501
19 Ar 8.98451 -0.186333 0.0421232
20 Ar 8.78625 -0.189215 4.2257
21 Ar 8.55879 -0.113662 8.92555
22 Ar 9.14608 4.49711 0.0914204
23 Ar 8.93419 4.51605 4.45541
24 Ar 8.81932 4.44953 8.79871
25 Ar 8.78708 8.90438 -0.032146
26 Ar 8.95021 8.81034 4.32677
27 Ar 8.6386 8.93379 8.81185
28 Ar -0.261217 2.31761 2.23139
29 Ar 0.0855829 2.1818 6.69734
30 Ar -0.112236 2.19505 10.9787
31 Ar 0.135516 6.9508 2.49133
32 Ar 0.164726 6.50655 6.79472
33 Ar 0.0637496 6.93663 10.9435
34 Ar -0.00157851 11.0461 2.28837
35 Ar 0.0899212 11.1909 6.74703
36 Ar 0.123119 11.1934 10.897
37 Ar 4.50708 2.34762 2.21353
38 Ar 4.52566 2.26799 6.79269
39 Ar 4.32806 2.35578 11.4023
40 Ar 4.35522 6.74588 2.27657
41 Ar 4.66228 6.55284 6.66577
42 Ar 4.50983 6.61375 11.2829
43 Ar 4.36298 10.9997 2.30512
44 Ar 4.36334 11.0658 6.46743
45 Ar 4.3693 11.107 11.1984
46 Ar 9.07419 2.16475 2.12877
47 Ar 8.93392 2.14674 6.61418
48 Ar 8.87541 2.08768 11.2963
49 Ar 9.04577 6.61077 2.29406
50 Ar 8.85561 6.69813 6.72048
51 Ar 8.96266 6.71867 11.1524
52 Ar 8.86931 11.1408 2.10578
53 Ar 8.8753 11.1889 6.4851
54 Ar 8.75005 11.0021 11.0734
55 Ar 2.33224 -0.130519 2.20323
56 Ar 2.20711 0.0656472 6.54118
57 Ar 2.17244 -0.0623538 11.2723
58 Ar 2.285 4.61786 1.96229
59 Ar 2.28994 4.39351 6.76556
60 Ar 2.16587 4.40554 11.1814
61 Ar 2.26726 8.82481 2.28961
62 Ar 2.30274 8.90005 6.61824
63 Ar 2.28561 9.07372 11.1396
64 Ar 6.43296 0.0228047 2.20849
65 Ar 6.52705 -0.0141034 6.79498
66 Ar 6.65794 0.167222 11.3525
67 Ar 6.89059 4.60579 2.25096
68 Ar 6.62664 4.43189 6.68045
69 Ar 6.57008 4.29586 11.2614
70 Ar 6.76735 8.64655 2.24061
71 Ar 6.71622 8.99377 6.51696
72 Ar 6.66863 8.89128 11.1014
73 Ar 11.2717 0.0256262 2.04243
74 Ar 11.1708 -0.0479136 6.61597
75 Ar 11.1382 -0.0599176 11.2235
76 Ar 11.266 4.62465 2.17145
77 Ar 11.1412 4.31504 6.75258
78 Ar 11.2019 4.42348 11.1348
79 Ar 11.1927 8.92455 2.122
80 Ar 11.0019 8.85749 6.74795
81 Ar 11.1713 9.06884 10.8162
82 Ar 2.16586 2.15928 0.185899
83 Ar 2.06665 2.43541 4.13196
84 Ar 2.17314 2.29393 9.12169
85 Ar 2.28957 6.67837 0.0285376
86 Ar 2.25643 6.63318 4.45246
87 Ar 2.20528 6.61568 8.85739
88 Ar 2.14629 10.946 0.156063
89 Ar 2.13775 11.2723 4.42729
90 Ar 2.29334 11.1788 8.70195
91 Ar 6.69796 2.25722 0.00669881
92 Ar 6.73827 2.24697 4.38523
93 Ar 6.75435 2.12587 9.0184
94 Ar 6.7566 6.62535 0.0438901
95 Ar 6.85245 6.60368 4.39959
96 Ar 6.46066 6.47988 9.00826
97 Ar 6.63665 11.1851 0.194299
98 Ar 6.61635 11.0099 4.36965
99 Ar 6.50129 11.0208 8.85296
100 Ar 11.3558 2.27136 -0.0332254
101 Ar 11.1114 2.349 4.54782
102 Ar 10.9447 2.00887 8.90053
103 Ar 11.1843 6.88189 -0.221077
104 Ar 11.1302 6.70905 4.73545
105 Ar 11.1343 6.58001 9.03502
106 Ar 11.095 11.0195 -0.235936
107 Ar 11.1964 11.2102 4.40862
108 Ar 11.0622 11.4414 8.82123
ITEM: TIMESTEP
46070
ITEM: NUMBER OF ATOMS
108
ITEM: BOX BOUNDS pp pp pp
0.0000000000000000e+00 1.3349999400000000e+01
0.0000000000000000e+00 1.3349999400000000e+01
0.0000000000000000e+00 1.3349999400000000e+01
ITEM: ATOMS id element xu yu zu
1 Ar -0.0957749 -0.113163 0.0513334
2 Ar -0.0900279 0.104112 4.34159
3 Ar 0.0733002 0.113195 8.7131
4 Ar 0.00968911 4.40675 -0.203842
5 Ar 0.0171929 4.60302 4.44715
6 Ar -0.00302871 4.45232 9.00632
7 Ar 0.0821934 8.81985 -0.0244742
8 Ar -0.00069991 8.76011 4.76302
9 Ar -0.0151508 9.13794 8.65696
10 Ar 4.27586 0.0705411 0.0840276
11 Ar 4.38015 0.048249 4.50693
12 Ar 4.30439 0.0255606 8.9438
13 Ar 4.68392 4.62002 0.0537908
14 Ar 4.62192 4.46543 4.4471
15 Ar 4.47427 4.38483 9.09241
16 Ar 4.38134 8.89586 0.0376362
17 Ar 4.33132 8.81874 4.48895
18 Ar 4.47157 8.69297 8.93883
19 Ar 8.98035 -0.1955 0.0389545
20 Ar 8.79766 -0.190894 4.19004
21 Ar 8.55942 -0.0940089 8.93925
22 Ar 9.15294 4.48403 0.0754315
23 Ar 8.93156 4.49393 4.44613
24 Ar 8.81748 4.46059 8.80605
25 Ar 8.79393 8.90876 -0.045291
26 Ar 8.96828 8.78068 4.32334
27 Ar 8.64471 8.93517 8.8018
28 Ar -0.268683 2.32938 2.22992
29 Ar 0.0854171 2.18589 6.6879
30 Ar -0.11393 2.21038 10.9861
31 Ar 0.158886 6.95115 2.50606
32 Ar 0.177918 6.53164 6.802
33 Ar 0.0513493 6.93265 10.9465
34 Ar 0.00256552 11.048 2.27715
35 Ar 0.0861141 11.186 6.72917
36 Ar 0.125658 11.2025 10.903
37 Ar 4.49591 2.33702 2.20765
38 Ar 4.52139 2.27739 6.79898
39 Ar 4.33132 2.3377 11.3925
40 Ar 4.36277 6.74618 2.28997
41 Ar 4.66816 6.53639 6.67998
42 Ar 4.50939 6.6377 11.2968
43 Ar 4.35911 11.0042 2.31064
44 Ar 4.34986 11.0534 6.4676
45 Ar 4.37367 11.1171 11.194
46 Ar 9.06109 2.17113 2.13899
47 Ar 8.90848 2.13968 6.62017
48 Ar 8.88502 2.09075 11.2823
49 Ar 9.02941 6.58623 2.27048
50 Ar 8.85768 6.70084 6.74096
51 Ar 8.96371 6.71249 11.146
52 Ar 8.87569 11.1502 2.10898
53 Ar 8.87666 11.1789 6.48511
54 Ar 8.72231 10.9948 11.0608
55 Ar 2.33464 -0.122127 2.1977
56 Ar 2.22076 0.0408142 6.55829
57 Ar 2.16077 -0.0493219 11.2713
58 Ar 2.26647 4.61649 1.95189
59 Ar 2.2764 4.38523 6.75942
60 Ar 2.16166 4.42091 11.1836
61 Ar 2.26234 8.84089 2.281
62 Ar 2.31146 8.92184 6.63006
63 Ar 2.29965 9.08767 11.1285
64 Ar 6.43824 0.0224496 2.20996
65 Ar 6.5341 -0.0155946 6.78744
66 Ar 6.65406 0.152421 11.3514
67 Ar 6.90437 4.61049 2.23363
68 Ar 6.59735 4.42817 6.6747
69 Ar 6.57764 4.30147 11.2797
70 Ar 6.76446 8.61732 2.24947
71 Ar 6.69905 8.97903 6.51938
72 Ar 6.6731 8.89379 11.1127
73 Ar 11.2665 0.0206856 2.04918
74 Ar 11.1894 -0.0670367 6.60062
75 Ar 11.1548 -0.0439427 11.2392
76 Ar 11.2781 4.6065 2.17902
77 Ar 11.1385 4.32695 6.73185
78 Ar 11.2134 4.4361 11.1386
79 Ar 11.1973 8.93356 2.11041
80 Ar 10.973 8.88288 6.7453
81 Ar 11.1836 9.05897 10.8095
82 Ar 2.16708 2.1324 0.200482
83 Ar 2.06236 2.45648 4.14346
84 Ar 2.16682 2.29127 9.11678
85 Ar 2.27945 6.6686 0.03703
86 Ar 2.26737 6.6321 4.44593
87 Ar 2.21075 6.62721 8.84795
88 Ar 2.14854 10.9401 0.152101
89 Ar 2.13571 11.2607 4.43172
90 Ar 2.29963 11.2098 8.68462
91 Ar 6.70477 2.24844 -0.00524485
92 Ar 6.73043 2.24553 4.39566
93 Ar 6.76146 2.13247 9.02823
94 Ar 6.77006 6.6171 0.0273368
95 Ar 6.87215 6.61873 4.40765
96 Ar 6.45121 6.46948 9.01225
97 Ar 6.63381 11.1758 0.201432
98 Ar 6.62312 11.0191 4.37402
99 Ar 6.51694 11.0073 8.84332
100 Ar 11.3624 2.2713 -0.0193265
101 Ar 11.1019 2.34514 4.55008
102 Ar 10.9316 2.01434 8.88688
103 Ar 11.1823 6.86233 -0.228779
104 Ar 11.1353 6.72735 4.71883
105 Ar 11.1462 6.57059 9.031
106 Ar 11.0865 11.0146 -0.239739
107 Ar 11.1967 11.234 4.41391
108 Ar 11.0686 11.4323 8.82874
ITEM: TIMESTEP
46080
ITEM: NUMBER OF ATOMS
108
ITEM: BOX BOUNDS pp pp pp
0.0000000000000000e+00 1.3349999400000000e+01
0.0000000000000000e+00 1.3349999400000000e+01
0.0000000000000000e+00 1.3349999400000000e+01
ITEM: ATOMS id element xu yu zu
1 Ar -0.108841 -0.119825 0.0559904
2 Ar -0.0897241 0.119647 4.34634
3 Ar 0.0863843 0.123236 8.71721
4 Ar -0.0207644 4.40039 -0.187627
5 Ar 0.0125777 4.61459 4.44785
6 Ar 0.0146854 4.44129 9.01796
7 Ar 0.0898331 8.83672 -0.0313967
8 Ar 0.0132874 8.77898 4.75814
9 Ar -0.0059044 9.14214 8.67061
10 Ar 4.25525 0.0302454 0.0950471
11 Ar 4.36965 0.052637 4.51583
12 Ar 4.27196 0.0122497 8.95131
13 Ar 4.67658 4.62396 0.0534038
14 Ar 4.62763 4.4609 4.44259
15 Ar 4.48778 4.3785 9.09992
16 Ar 4.3856 8.88922 0.055942
17 Ar 4.34095 8.8252 4.49868
18 Ar 4.4576 8.70694 8.93163
19 Ar 8.97499 -0.201473 0.0348382
20 Ar 8.80995 -0.188599 4.1569
21 Ar 8.56431 -0.075637 8.95322
22 Ar 9.15778 4.4703 0.0572724
23 Ar 8.93044 4.47007 4.43825
24 Ar 8.81637 4.47063 8.81591
25 Ar 8.80246 8.91289 -0.0576716
26 Ar 8.98712 8.7544 4.32088
27 Ar 8.6536 8.93526 8.79246
28 Ar -0.271137 2.34105 2.22942
29 Ar 0.0845566 2.19259 6.67719
30 Ar -0.114504 2.2235 10.9953
31 Ar 0.177621 6.94748 2.51598
32 Ar 0.187763 6.5581 6.80874
33 Ar 0.0402951 6.92722 10.9507
34 Ar 0.00630567 11.0496 2.26577
35 Ar 0.0802842 11.1822 6.70725
36 Ar 0.126576 11.211 10.9106
37 Ar 4.48455 2.32722 2.20218
38 Ar 4.51527 2.28604 6.80404
39 Ar 4.33451 2.3172 11.3809
40 Ar 4.37352 6.7449 2.30299