ITEM: TIMESTEP
24000
ITEM: NUMBER OF ATOMS
108
ITEM: BOX BOUNDS pp pp pp
0.0000000000000000e+00 1.3349999400000000e+01
0.0000000000000000e+00 1.3349999400000000e+01
0.0000000000000000e+00 1.3349999400000000e+01
ITEM: ATOMS id element xu yu zu
1 Ar 0.032706 0.152818 0.0246616
2 Ar 0.0123525 -0.035554 4.57281
3 Ar 0.0551807 -0.0103999 8.81954
4 Ar -0.039367 4.50813 -0.0206623
5 Ar -0.232931 4.33363 4.50237
6 Ar 0.0129511 4.44612 8.99853
7 Ar -0.0434528 8.99215 -0.00644067
8 Ar 0.0371128 9.10746 4.37472
9 Ar 0.191247 8.97244 8.86481
10 Ar 4.31866 -0.0470231 -0.131261
11 Ar 4.41081 0.0489221 4.46127
12 Ar 4.61791 -0.00550066 8.85081
13 Ar 4.54911 4.37794 -0.0483878
14 Ar 4.32163 4.35408 4.51607
15 Ar 4.36292 4.27802 8.77008
16 Ar 4.52412 8.73838 -0.00295203
17 Ar 4.29824 8.93706 4.43685
18 Ar 4.64953 8.87061 8.90302
19 Ar 8.74935 0.155191 0.28256
20 Ar 8.72976 0.0157496 4.25506
21 Ar 8.78929 0.0507822 8.86542
22 Ar 8.88018 4.46142 0.0741613
23 Ar 8.96814 4.63697 4.49947
24 Ar 8.89625 4.28721 9.01775
25 Ar 9.10981 8.8614 0.0296206
26 Ar 9.01774 8.83031 4.40645
27 Ar 8.96032 8.99482 8.88408
28 Ar 0.169858 2.32464 2.373
29 Ar -0.185002 2.09322 6.65436
30 Ar 0.0957229 2.53338 11.2151
31 Ar -0.0651663 6.59143 2.05006
32 Ar -0.155272 6.62545 6.78883
33 Ar -0.0437696 6.68747 11.0642
34 Ar -0.0203417 11.2534 2.20263
35 Ar 0.143548 11.1152 6.77906
36 Ar -0.145435 11.2375 11.147
37 Ar 4.30047 2.12455 2.25889
38 Ar 4.38395 2.20142 6.57212
39 Ar 4.53717 2.29746 11.1582
40 Ar 4.55006 6.67589 2.06142
41 Ar 4.45085 6.8749 6.75463
42 Ar 4.50889 6.69478 11.1001
43 Ar 4.47852 11.0846 2.13457
44 Ar 4.40912 11.0014 6.74464
45 Ar 4.62162 11.1934 11.0232
46 Ar 8.96994 2.33387 2.4599
47 Ar 8.71696 2.16907 6.55237
48 Ar 8.89202 2.1312 11.2149
49 Ar 9.07414 6.65742 2.21128
50 Ar 9.05207 6.6884 6.71596
51 Ar 8.99004 6.77185 11.0708
52 Ar 8.99862 11.1896 2.38335
53 Ar 8.91276 11.0233 6.67065
54 Ar 8.79378 11.2379 11.0272
55 Ar 2.28209 0.0340539 2.19955
56 Ar 2.30593 -0.117183 6.74924
57 Ar 2.35251 0.106757 10.9323
58 Ar 2.07171 4.53157 2.17229
59 Ar 1.87078 4.46817 6.66383
60 Ar 2.38054 4.37529 11.0944
61 Ar 2.2638 8.88921 1.99549
62 Ar 2.17875 8.83381 6.55653
63 Ar 2.20571 8.87389 11.2286
64 Ar 6.59689 -0.139722 2.09614
65 Ar 6.76718 -0.142579 6.53401
66 Ar 6.63529 0.186721 11.2243
67 Ar 6.58876 4.46534 2.38034
68 Ar 6.53935 4.50847 6.62238
69 Ar 6.58882 4.44273 10.8981
70 Ar 6.6322 8.89794 2.30896
71 Ar 6.75204 8.80366 6.54891
72 Ar 6.7768 8.90286 11.1427
73 Ar 11.1506 -0.0375916 2.27399
74 Ar 10.8964 -0.0152359 6.74058
75 Ar 11.0803 0.0958593 11.2853
76 Ar 11.207 4.42018 2.30433
77 Ar 11.1035 4.48885 6.82507
78 Ar 10.9811 4.41593 11.2308
79 Ar 11.309 8.7488 2.21272
80 Ar 11.1823 8.92047 6.75265
81 Ar 11.1701 8.95153 11.0155
82 Ar 2.07527 2.21655 0.0559002
83 Ar 2.01803 2.2516 4.57768
84 Ar 2.08139 2.22506 8.88798
85 Ar 2.22146 6.62411 -0.0963762
86 Ar 2.3609 6.68792 4.30281
87 Ar 2.3538 6.54871 8.99887
88 Ar 2.17238 11.2978 0.0271866
89 Ar 2.17011 11.1977 4.33932
90 Ar 2.2812 11.1141 8.96787
91 Ar 6.53045 2.22704 0.106004
92 Ar 6.72966 2.13838 4.33186
93 Ar 6.59882 2.05809 8.69116
94 Ar 6.79386 6.66697 -0.298393
95 Ar 6.60816 6.65714 4.40014
96 Ar 6.78897 6.75627 8.86886
97 Ar 6.73406 10.9089 0.0147389
98 Ar 6.57863 11.1858 4.44143
99 Ar 6.84384 11.1586 8.88907
100 Ar 11.1024 2.3799 0.00816417
101 Ar 11.1151 2.03047 4.64723
102 Ar 11.2082 2.07356 9.11353
103 Ar 11.1829 6.66761 -0.144634
104 Ar 11.1767 6.66514 4.47072
105 Ar 11.1695 6.38984 8.94671
106 Ar 11.0533 11.2391 0.130483
107 Ar 11.2092 11.0831 4.55177
108 Ar 11.1075 11.2649 8.94215
ITEM: TIMESTEP
24010
ITEM: NUMBER OF ATOMS
108
ITEM: BOX BOUNDS pp pp pp
0.0000000000000000e+00 1.3349999400000000e+01
0.0000000000000000e+00 1.3349999400000000e+01
0.0000000000000000e+00 1.3349999400000000e+01
ITEM: ATOMS id element xu yu zu
1 Ar 0.0350235 0.147745 0.0448473
2 Ar 0.00884399 -0.0270751 4.56198
3 Ar 0.0525802 -0.020969 8.83377
4 Ar -0.0444792 4.51982 -0.0297723
5 Ar -0.245642 4.34657 4.51715
6 Ar 0.0215651 4.4467 8.99608
7 Ar -0.0317119 8.98371 -0.0165915
8 Ar 0.0655327 9.08683 4.36435
9 Ar 0.202959 8.95976 8.85737
10 Ar 4.3426 -0.0278356 -0.124104
11 Ar 4.38487 0.0229791 4.45353
12 Ar 4.62714 -0.00243055 8.87499
13 Ar 4.54947 4.38107 -0.0483879
14 Ar 4.30411 4.37008 4.49261
15 Ar 4.37472 4.29757 8.77483
16 Ar 4.50337 8.7539 -0.00118515
17 Ar 4.305 8.92901 4.4172
18 Ar 4.62109 8.87179 8.909
19 Ar 8.7465 0.154085 0.280887
20 Ar 8.72885 0.010671 4.24417
21 Ar 8.7992 0.0349919 8.86215
22 Ar 8.87493 4.44314 0.0569128
23 Ar 8.95735 4.6377 4.49372
24 Ar 8.86935 4.27544 9.02505
25 Ar 9.10711 8.85537 0.0158687
26 Ar 8.99936 8.81691 4.41495
27 Ar 8.9397 8.98249 8.87517
28 Ar 0.137592 2.33763 2.38451
29 Ar -0.186745 2.1097 6.65458
30 Ar 0.0787338 2.50882 11.2076
31 Ar -0.0544156 6.59273 2.04761
32 Ar -0.142902 6.62777 6.81918
33 Ar -0.0354416 6.70831 11.077
34 Ar -0.0506785 11.2555 2.20941
35 Ar 0.153117 11.139 6.75458
36 Ar -0.132475 11.2342 11.161
37 Ar 4.30563 2.11678 2.27747
38 Ar 4.40144 2.19645 6.58519
39 Ar 4.5345 2.28845 11.1555
40 Ar 4.5386 6.67931 2.06515
41 Ar 4.45519 6.88236 6.76313
42 Ar 4.53504 6.68361 11.1066
43 Ar 4.46642 11.1121 2.13957
44 Ar 4.418 11.0167 6.74729
45 Ar 4.63871 11.1823 11.0242
46 Ar 8.95868 2.33592 2.44352
47 Ar 8.7223 2.17526 6.54645
48 Ar 8.90398 2.13201 11.2124
49 Ar 9.05966 6.65384 2.24035
50 Ar 9.05647 6.70698 6.68952
51 Ar 8.99788 6.77219 11.0569
52 Ar 9.01236 11.1866 2.39699
53 Ar 8.90917 11.0521 6.68954
54 Ar 8.79913 11.2144 11.0235
55 Ar 2.28564 0.0262469 2.20495
56 Ar 2.29891 -0.109324 6.73558
57 Ar 2.35652 0.111945 10.9486
58 Ar 2.06669 4.54078 2.16924
59 Ar 1.8671 4.45228 6.66389
60 Ar 2.38992 4.36339 11.0963
61 Ar 2.28458 8.89427 1.99849
62 Ar 2.18819 8.83152 6.56901
63 Ar 2.20842 8.85183 11.2332
64 Ar 6.59812 -0.132498 2.08173
65 Ar 6.76808 -0.127735 6.55283
66 Ar 6.63378 0.173429 11.237
67 Ar 6.59059 4.46582 2.40187
68 Ar 6.53851 4.52116 6.63033
69 Ar 6.58366 4.42712 10.8982
70 Ar 6.63711 8.90077 2.29684
71 Ar 6.75652 8.81152 6.55509
72 Ar 6.75311 8.90977 11.1524
73 Ar 11.1625 -0.0192466 2.27425
74 Ar 10.9009 -0.0137361 6.74166
75 Ar 11.0893 0.116164 11.2873
76 Ar 11.2 4.41435 2.29402
77 Ar 11.1072 4.49284 6.80681
78 Ar 10.9731 4.41394 11.2249
79 Ar 11.3031 8.75404 2.22132
80 Ar 11.1775 8.92131 6.73103
81 Ar 11.201 8.97365 11.0192
82 Ar 2.05901 2.20605 0.0791949
83 Ar 2.01684 2.26013 4.58113
84 Ar 2.09004 2.21595 8.88142
85 Ar 2.2231 6.62875 -0.0945422
86 Ar 2.35701 6.67154 4.28715
87 Ar 2.34386 6.54155 8.99482
88 Ar 2.16762 11.3004 0.0493066
89 Ar 2.17206 11.1865 4.33185
90 Ar 2.28304 11.1129 8.96013
91 Ar 6.51898 2.24214 0.115424
92 Ar 6.73724 2.12094 4.33031
93 Ar 6.59417 2.062 8.70837
94 Ar 6.80325 6.64472 -0.298283
95 Ar 6.5916 6.66285 4.40853
96 Ar 6.79046 6.76143 8.87737
97 Ar 6.72503 10.9144 0.0400468
98 Ar 6.58794 11.1877 4.43252
99 Ar 6.85746 11.1517 8.85935
100 Ar 11.1138 2.34396 -0.029962
101 Ar 11.0999 2.04313 4.64512
102 Ar 11.2316 2.06492 9.10182
103 Ar 11.1654 6.69249 -0.153748
104 Ar 11.1883 6.65516 4.44321
105 Ar 11.1559 6.38587 8.94845
106 Ar 11.0482 11.2337 0.11965
107 Ar 11.212 11.0733 4.54039
108 Ar 11.1167 11.2692 8.93951
ITEM: TIMESTEP
24020
ITEM: NUMBER OF ATOMS
108
ITEM: BOX BOUNDS pp pp pp
0.0000000000000000e+00 1.3349999400000000e+01
0.0000000000000000e+00 1.3349999400000000e+01
0.0000000000000000e+00 1.3349999400000000e+01
ITEM: ATOMS id element xu yu zu
1 Ar 0.0354899 0.141593 0.0640884
2 Ar 0.00498392 -0.0191988 4.55008
3 Ar 0.0491885 -0.0316581 8.84989
4 Ar -0.0492343 4.53097 -0.0392889
5 Ar -0.255957 4.36211 4.53241
6 Ar 0.029636 4.44656 8.99349
7 Ar -0.0198066 8.97538 -0.0272738
8 Ar 0.0944494 9.06193 4.35458
9 Ar 0.212348 8.94574 8.85136
10 Ar 4.36788 -0.00803496 -0.115552
11 Ar 4.35941 -0.0039721 4.44612
12 Ar 4.63386 -0.000340799 8.89834
13 Ar 4.54799 4.38617 -0.0465214
14 Ar 4.28681 4.38695 4.46874
15 Ar 4.38701 4.31861 8.77896
16 Ar 4.48277 8.77229 -0.00137036
17 Ar 4.31385 8.92158 4.39667
18 Ar 4.59057 8.87459 8.91631
19 Ar 8.74702 0.151691 0.275749
20 Ar 8.73119 0.00429098 4.23644
21 Ar 8.81051 0.020346 8.8603
22 Ar 8.86819 4.42458 0.0399132
23 Ar 8.94572 4.6358 4.4888
24 Ar 8.84229 4.26382 9.02938
25 Ar 9.10233 8.85085 0.0025598
26 Ar 8.98022 8.8046 4.4234
27 Ar 8.92014 8.96839 8.86656
28 Ar 0.101234 2.34756 2.39374
29 Ar -0.186812 2.12703 6.65801
30 Ar 0.0604167 2.47944 11.1993
31 Ar -0.0422108 6.59619 2.04824
32 Ar -0.128007 6.63254 6.84721
33 Ar -0.0258924 6.72873 11.0896
34 Ar -0.080167 11.2563 2.21572
35 Ar 0.160277 11.1624 6.72907
36 Ar -0.116947 11.2312 11.1752
37 Ar 4.31191 2.11187 2.29574
38 Ar 4.41873 2.19097 6.59854
39 Ar 4.53007 2.27792 11.1514
40 Ar 4.5264 6.68116 2.07008
41 Ar 4.4588 6.88573 6.7699
42 Ar 4.56022 6.67194 11.1122
43 Ar 4.45327 11.1393 2.14496
44 Ar 4.42789 11.0325 6.74883
45 Ar 4.65407 11.1695 11.0268
46 Ar 8.94797 2.33877 2.42383
47 Ar 8.72977 2.18385 6.54205
48 Ar 8.91372 2.13407 11.2097
49 Ar 9.04256 6.65045 2.26781
50 Ar 9.05878 6.72527 6.66411
51 Ar 9.00532 6.77142 11.0423
52 Ar 9.02489 11.1798 2.40833
53 Ar 8.90605 11.0812 6.70594
54 Ar 8.80685 11.1913 11.0238
55 Ar 2.28723 0.0180025 2.21184
56 Ar 2.29216 -0.0996334 6.72148
57 Ar 2.35835 0.115943 10.967
58 Ar 2.06542 4.54903 2.16694
59 Ar 1.86773 4.43695 6.66361
60 Ar 2.39832 4.35306 11.0997
61 Ar 2.30363 8.89944 2.0036
62 Ar 2.19724 8.82913 6.58279
63 Ar 2.21235 8.83205 11.2366
64 Ar 6.59681 -0.124059 2.06942
65 Ar 6.76661 -0.112143 6.57239
66 Ar 6.63388 0.157535 11.2494
67 Ar 6.59345 4.46582 2.42093
68 Ar 6.53971 4.53352 6.63849
69 Ar 6.58034 4.411 10.9001
70 Ar 6.64415 8.90284 2.28422
71 Ar 6.76089 8.8213 6.56147
72 Ar 6.72959 8.91726 11.1609
73 Ar 11.1748 0.00225552 2.2749
74 Ar 10.9071 -0.0132062 6.74195
75 Ar 11.0988 0.134004 11.2892
76 Ar 11.1913 4.40808 2.28209
77 Ar 11.1096 4.49234 6.78709
78 Ar 10.9666 4.41215 11.2174
79 Ar 11.2952 8.76223 2.23007
80 Ar 11.1736 8.92222 6.70997
81 Ar 11.2312 8.99581 11.0228
82 Ar 2.04684 2.19741 0.101204
83 Ar 2.01886 2.26783 4.58448
84 Ar 2.10059 2.20694 8.87308
85 Ar 2.22497 6.63263 -0.092639
86 Ar 2.34981 6.65504 4.27298
87 Ar 2.33252 6.53673 8.98945
88 Ar 2.16307 11.3005 0.0685583
89 Ar 2.17592 11.1748 4.32515
90 Ar 2.28582 11.1112 8.9536
91 Ar 6.51018 2.25799 0.125542
92 Ar 6.74072 2.1055 4.32992
93 Ar 6.59103 2.06945 8.72718
94 Ar 6.81253 6.62178 -0.293325
95 Ar 6.57524 6.66925 4.41767
96 Ar 6.79192 6.76468 8.88553
97 Ar 6.71693 10.9222 0.0648548
98 Ar 6.59742 11.1869 4.42333
99 Ar 6.86714 11.1439 8.82888
100 Ar 11.1257 2.30608 -0.0647692
101 Ar 11.083 2.05783 4.63964
102 Ar 11.2534 2.05868 9.08761
103 Ar 11.1475 6.71696 -0.161298
104 Ar 11.2017 6.64674 4.41649
105 Ar 11.1405 6.38721 8.95178
106 Ar 11.0429 11.2275 0.106703
107 Ar 11.2134 11.0649 4.52896
108 Ar 11.1263 11.2725 8.9365
ITEM: TIMESTEP
24030
ITEM: NUMBER OF ATOMS
108
ITEM: BOX BOUNDS pp pp pp
0.0000000000000000e+00 1.3349999400000000e+01
0.0000000000000000e+00 1.3349999400000000e+01
0.0000000000000000e+00 1.3349999400000000e+01
ITEM: ATOMS id element xu yu zu
1 Ar 0.0341245 0.134229 0.0822194
2 Ar 0.000807808 -0.0117609 4.53726
3 Ar 0.0453892 -0.0423466 8.8676
4 Ar -0.0537612 4.54131 -0.0493714
5 Ar -0.263558 4.37995 4.54765
6 Ar 0.0369195 4.44572 8.99119
7 Ar -0.00785029 8.96732 -0.0378253
8 Ar 0.123446 9.03307 4.34554
9 Ar 0.219245 8.93098 8.84675
10 Ar 4.39375 0.0119327 -0.105714
11 Ar 4.33505 -0.031425 4.43945
12 Ar 4.63787 0.000580364 8.92064
13 Ar 4.54454 4.39311 -0.0427125
14 Ar 4.27017 4.40418 4.44511
15 Ar 4.39954 4.3409 8.78243
16 Ar 4.46283 8.7932 -0.00346897
17 Ar 4.32458 8.91486 4.37578
18 Ar 4.55836 8.87886 8.92483
19 Ar 8.75093 0.147954 0.267181
20 Ar 8.73675 -0.00313913 4.23203
21 Ar 8.82303 0.00731825 8.8602
22 Ar 8.86032 4.40595 0.0234454
23 Ar 8.9334 4.63125 4.48492
24 Ar 8.81573 4.25257 9.03041
25 Ar 9.09529 8.84794 -0.0101321
26 Ar 8.96057 8.7938 4.43164
27 Ar 8.90225 8.95281 8.8584
28 Ar 0.0615325 2.35455 2.40078
29 Ar -0.185326 2.14468 6.66437
30 Ar 0.0415729 2.44592 11.1904
31 Ar -0.0290389 6.60188 2.05169
32 Ar -0.110982 6.63959 6.87251
33 Ar -0.0154835 6.7482 11.1018
34 Ar -0.10834 11.2556 2.22147
35 Ar 0.164912 11.1848 6.70294
36 Ar -0.0988357 11.2287 11.1894
37 Ar 4.31911 2.10987 2.31356
38 Ar 4.43567 2.18515 6.61167
39 Ar 4.52401 2.26608 11.146
40 Ar 4.51386 6.68147 2.07589
41 Ar 4.46165 6.88508 6.77484
42 Ar 4.58388 6.65994 11.1168
43 Ar 4.43947 11.1658 2.15068
44 Ar 4.43865 11.0486 6.74914
45 Ar 4.66737 11.1555 11.031
46 Ar 8.93787 2.34227 2.40101
47 Ar 8.7391 2.19468 6.53942
48 Ar 8.92089 2.13705 11.2067
49 Ar 9.023 6.64729 2.29294
50 Ar 9.05908 6.74273 6.64007
51 Ar 9.01204 6.76979 11.0274
52 Ar 9.03619 11.1692 2.41698
53 Ar 8.90383 11.11 6.71926
54 Ar 8.81665 11.1687 11.0278
55 Ar 2.28655 0.0097162 2.22013
56 Ar 2.2858 -0.0881372 6.70728
57 Ar 2.35803 0.118544 10.9873
58 Ar 2.06766 4.55571 2.16519
59 Ar 1.87283 4.42248 6.66304
60 Ar 2.40535 4.34422 11.1044
61 Ar 2.32051 8.9047 2.0108
62 Ar 2.20602 8.8268 6.59743
63 Ar 2.21764 8.81494 11.2384
64 Ar 6.59319 -0.114454 2.05962
65 Ar 6.76273 -0.0959069 6.59205
66 Ar 6.63598 0.139327 11.2611
67 Ar 6.59718 4.46539 2.43728
68 Ar 6.54288 4.54537 6.64658
69 Ar 6.57886 4.39448 10.9038
70 Ar 6.65309 8.904 2.27119
71 Ar 6.76481 8.83294 6.56806
72 Ar 6.70662 8.92504 11.1684
73 Ar 11.1868 0.0266011 2.27576
74 Ar 10.9152 -0.0134605 6.74114
75 Ar 11.1085 0.148475 11.2908
76 Ar 11.181 4.40152 2.26836
77 Ar 11.1103 4.48784 6.76658
78 Ar 10.9617 4.41065 11.2086
79 Ar 11.2854 8.77313 2.23871
80 Ar 11.171 8.92329 6.68969
81 Ar 11.2602 9.01768 11.0258
82 Ar 2.03872 2.19092 0.12175
83 Ar 2.02389 2.27462 4.5874
84 Ar 2.11294 2.19808 8.8632
85 Ar 2.22718 6.63556 -0.0906667
86 Ar 2.3393 6.63898 4.26084
87 Ar 2.32016 6.53414 8.98307
88 Ar 2.15893 11.2983 0.0846878
89 Ar 2.18139 11.1626 4.31929
90 Ar 2.28943 11.1091 8.9484
91 Ar 6.50427 2.27437 0.136107
92 Ar 6.73993 2.09211 4.3308
93 Ar 6.58971 2.08016 8.74741
94 Ar 6.82166 6.59864 -0.283602
95 Ar 6.55912 6.67631 4.42748
96 Ar 6.79321 6.76608 8.89321
97 Ar 6.70995 10.9322 0.0887314
98 Ar 6.60697 11.1836 4.41411
99 Ar 6.87249 11.1352 8.79855
100 Ar 11.1379 2.26732 -0.0954394
101 Ar 11.0647 2.07436 4.63102
102 Ar 11.2731 2.05508 9.07094
103 Ar 11.1293 6.74047 -0.167054
104 Ar 11.2166 6.64011 4.39105
105 Ar 11.1238 6.39353 8.95635
106 Ar 11.0375 11.2207 0.0918934
107 Ar 11.2137 11.0578 4.51782
108 Ar 11.1361 11.2745 8.93319
ITEM: TIMESTEP
24040
ITEM: NUMBER OF ATOMS
108
ITEM: BOX BOUNDS pp pp pp
0.0000000000000000e+00 1.3349999400000000e+01
0.0000000000000000e+00 1.3349999400000000e+01
0.0000000000000000e+00 1.3349999400000000e+01
ITEM: ATOMS id element xu yu zu
1 Ar 0.0310621 0.125562 0.0990979
2 Ar -0.00363653 -0.00456739 4.5237
3 Ar 0.041572 -0.0529281 8.88659
4 Ar -0.0581689 4.55057 -0.0601132
5 Ar -0.268108 4.3997 4.56238
6 Ar 0.0431854 4.4442 8.98956
7 Ar 0.00404324 8.95969 -0.0476011
8 Ar 0.152091 9.00064 4.33732
9 Ar 0.223528 8.91614 8.84352
10 Ar 4.41947 0.0316588 -0.094714
11 Ar 4.3124 -0.0588414 4.43385
12 Ar 4.6391 0.000207256 8.94166
13 Ar 4.53906 4.40169 -0.0369558
14 Ar 4.25462 4.42129 4.42234
15 Ar 4.41202 4.36414 8.78523
16 Ar 4.444 8.81625 -0.00736365
17 Ar 4.33695 8.90892 4.35505
18 Ar 4.5249 8.88437 8.93438
19 Ar 8.75814 0.142812 0.255348
20 Ar 8.74544 -0.0113316 4.23095
21 Ar 8.83654 -0.00370523 8.86212
22 Ar 8.8517 4.38746 0.00771668
23 Ar 8.92055 4.62409 4.48222
24 Ar 8.79032 4.24194 9.0279
25 Ar 9.08582 8.84673 -0.0220714
26 Ar 8.9407 8.7849 4.43953
27 Ar 8.88656 8.93611 8.8508
28 Ar 0.0193655 2.35886 2.40577
29 Ar -0.182423 2.16214 6.67322
30 Ar 0.0230316 2.40899 11.1811
31 Ar -0.0153724 6.60979 2.05762
32 Ar -0.0922867 6.64864 6.89469
33 Ar -0.00459421 6.76617 11.1133
34 Ar -0.134767 11.2532 2.22661
35 Ar 0.166975 11.2058 6.67659
36 Ar -0.0781539 11.2269 11.2035
37 Ar 4.327 2.11074 2.33082
38 Ar 4.45213 2.17922 6.62415
39 Ar 4.51648 2.25319 11.1396
40 Ar 4.50137 6.6804 2.08224
41 Ar 4.46372 6.88058 6.77788
42 Ar 4.60554 6.64782 11.1203
43 Ar 4.42543 11.191 2.15665
44 Ar 4.45007 11.0648 6.74813
45 Ar 4.6783 11.1406 11.0369
46 Ar 8.92838 2.34621 2.37539
47 Ar 8.74998 2.20751 6.53878
48 Ar 8.92523 2.14062 11.2031
49 Ar 9.00122 6.64439 2.31513
50 Ar 9.0575 6.75885 6.61769
51 Ar 9.01768 6.7675 11.0124
52 Ar 9.04625 11.1551 2.42262
53 Ar 8.90289 11.1379 6.729
54 Ar 8.82821 11.147 11.0353
55 Ar 2.28333 0.00180378 2.22967
56 Ar 2.27991 -0.0749305 6.69329
57 Ar 2.35556 0.119582 11.0094
58 Ar 2.07305 4.56026 2.16375
59 Ar 1.88251 4.40919 6.66225
60 Ar 2.41068 4.3368 11.1103
61 Ar 2.33481 8.90999 2.01997
62 Ar 2.21468 8.8247 6.61248
63 Ar 2.22439 8.80081 11.2384
64 Ar 6.58761 -0.103722 2.05268
65 Ar 6.75645 -0.0790989 6.61125
66 Ar 6.6404 0.119113 11.2723
67 Ar 6.60158 4.46465 2.45079
68 Ar 6.5479 4.55653 6.65431
69 Ar 6.57916 4.37768 10.9098
70 Ar 6.66363 8.9041 2.25782
71 Ar 6.76795 8.8463 6.57482
72 Ar 6.68464 8.93277 11.1748
73 Ar 11.198 0.0533563 2.27668
74 Ar 10.9253 -0.0142725 6.73895
75 Ar 11.1186 0.158702 11.2914
76 Ar 11.1693 4.39493 2.25279
77 Ar 11.1091 4.47999 6.746
78 Ar 10.9588 4.40946 11.1984
79 Ar 11.2737 8.78641 2.24694
80 Ar 11.1697 8.9246 6.67039
81 Ar 11.2874 9.03888 11.0281
82 Ar 2.03455 2.18675 0.140706
83 Ar 2.03164 2.28043 4.58952
84 Ar 2.12699 2.1894 8.85206
85 Ar 2.22987 6.6374 -0.0886097
86 Ar 2.32553 6.62395 4.2512
87 Ar 2.30714 6.5336 8.976
88 Ar 2.1554 11.2938 0.0975267
89 Ar 2.18812 11.1499 4.31439
90 Ar 2.29372 11.1069 8.94458
91 Ar 6.50137 2.29106 0.146834
92 Ar 6.73492 2.0808 4.33301
93 Ar 6.5904 2.0937 8.76887
94 Ar 6.8306 6.5758 -0.269295
95 Ar 6.54333 6.68396 4.43784
96 Ar 6.79415 6.76573 8.90027
97 Ar 6.70426 10.9442 0.111275
98 Ar 6.61645 11.1782 4.40511
99 Ar 6.87329 11.1257 8.76929
100 Ar 11.1503 2.22884 -0.121203
101 Ar 11.0454 2.09249 4.61955
102 Ar 11.2902 2.05427 9.05193
103 Ar 11.1113 6.7625 -0.170833
104 Ar 11.2327 6.63548 4.36728
105 Ar 11.1062 6.40441 8.96167
106 Ar 11.0319 11.2137 0.075523
107 Ar 11.2128 11.0519 4.50728
108 Ar 11.1463 11.2748 8.92966
ITEM: TIMESTEP
24050
ITEM: NUMBER OF ATOMS
108
ITEM: BOX BOUNDS pp pp pp
0.0000000000000000e+00 1.3349999400000000e+01
0.0000000000000000e+00 1.3349999400000000e+01
0.0000000000000000e+00 1.3349999400000000e+01
ITEM: ATOMS id element xu yu zu
1 Ar 0.0265462 0.115551 0.114607
2 Ar -0.00828983 0.00258574 4.50959
3 Ar 0.0381105 -0.0633028 8.90651
4 Ar -0.062541 4.55855 -0.0715338
5 Ar -0.26927 4.42085 4.57607
6 Ar 0.0482369 4.44206 8.98889
7 Ar 0.0157614 8.95261 -0.0560039
8 Ar 0.179944 8.96513 4.33002
9 Ar 0.225113 8.90188 8.84168
10 Ar 4.4443 0.0507873 -0.0826999
11 Ar 4.29206 -0.0856572 4.42966
12 Ar 4.63757 -0.00152176 8.96127
13 Ar 4.53157 4.41163 -0.02931
14 Ar 4.24062 4.43789 4.40099
15 Ar 4.42421 4.38806 8.7874
16 Ar 4.42668 8.84102 -0.0128544
17 Ar 4.35072 8.9038 4.33499
18 Ar 4.49067 8.89079 8.94469
19 Ar 8.76844 0.136205 0.240537
20 Ar 8.75704 -0.019984 4.23314
21 Ar 8.85079 -0.0124466 8.8663
22 Ar 8.84276 4.36932 -0.00714222
23 Ar 8.90737 4.61443 4.48081
24 Ar 8.76668 4.23223 9.02175
25 Ar 9.0738 8.84728 -0.0331568
26 Ar 8.9209 8.77822 4.44685
27 Ar 8.87352 8.91874 8.84384
28 Ar -0.024289 2.36084 2.40885
29 Ar -0.178225 2.17891 6.68403
30 Ar 0.0056101 2.3694 11.1716
31 Ar -0.00164455 6.61982 2.06563
32 Ar -0.072438 6.65925 6.91341
33 Ar 0.00639345 6.78214 11.1238
34 Ar -0.159064 11.2489 2.23108
35 Ar 0.166493 11.2248 6.65043
36 Ar -0.0549548 11.2261 11.2172
37 Ar 4.33532 2.11434 2.34741
38 Ar 4.468 2.17338 6.63566
39 Ar 4.50771 2.23954 11.1323
40 Ar 4.48929 6.67813 2.0888
41 Ar 4.46501 6.87251 6.77904
42 Ar 4.62481 6.63577 11.1228
43 Ar 4.41159 11.2146 2.1627
44 Ar 4.4619 11.0808 6.74577
45 Ar 4.68657 11.1254 11.0443
46 Ar 8.91939 2.35029 2.34737
47 Ar 8.76206 2.222 6.54027
48 Ar 8.92663 2.14445 11.1989
49 Ar 8.9775 6.64179 2.33393
50 Ar 9.05423 6.77309 6.59723
51 Ar 9.02186 6.76473 10.9978
52 Ar 9.05505 11.1378 2.42502
53 Ar 8.90353 11.1645 6.73476
54 Ar 8.84118 11.1261 11.0457
55 Ar 2.27739 -0.00532015 2.24023
56 Ar 2.27451 -0.0601781 6.67984
57 Ar 2.35101 0.11894 11.0331
58 Ar 2.08114 4.56218 2.16236
59 Ar 1.89679 4.39738 6.66134
60 Ar 2.414 4.33071 11.1174
61 Ar 2.34624 8.91523 2.03097
62 Ar 2.22335 8.82305 6.62749
63 Ar 2.23264 8.78988 11.2363
64 Ar 6.58063 -0.0918919 2.04888
65 Ar 6.74793 -0.0617746 6.62954
66 Ar 6.64734 0.0972163 11.2826
67 Ar 6.60647 4.46371 2.46137
68 Ar 6.5547 4.5668 6.66144
69 Ar 6.58113 4.36075 10.918
70 Ar 6.67548 8.903 2.24416
71 Ar 6.76995 8.86118 6.58174
72 Ar 6.66409 8.94011 11.1804
73 Ar 11.2078 0.0819655 2.27751
74 Ar 10.9375 -0.0153923 6.73517
75 Ar 11.1287 0.163886 11.2904
76 Ar 11.1563 4.38868 2.23538
77 Ar 11.1059 4.46955 6.72609
78 Ar 10.9579 4.40856 11.1872
79 Ar 11.2605 8.80171 2.25454
80 Ar 11.1699 8.92619 6.65224
81 Ar 11.3122 9.05908 11.0296
82 Ar 2.0341 2.18498 0.157987
83 Ar 2.04175 2.2852 4.5905
84 Ar 2.1426 2.18094 8.84005
85 Ar 2.23311 6.63811 -0.0864451
86 Ar 2.30861 6.61045 4.2445
87 Ar 2.29386 6.53491 8.96854
88 Ar 2.15263 11.2875 0.107
89 Ar 2.19568 11.1366 4.31057
90 Ar 2.29849 11.1047 8.94211
91 Ar 6.50151 2.30784 0.15742
92 Ar 6.72595 2.07149 4.3366
93 Ar 6.59314 2.10953 8.79136
94 Ar 6.83928 6.55373 -0.250676
95 Ar 6.52798 6.69209 4.44862
96 Ar 6.79453 6.76372 8.90662
97 Ar 6.69995 10.9581 0.132129
98 Ar 6.62578 11.1709 4.39651
99 Ar 6.86946 11.1155 8.74199
100 Ar 11.1626 2.19186 -0.141377
101 Ar 11.0254 2.11201 4.6056
102 Ar 11.304 2.05632 9.03079
103 Ar 11.0939 6.78259 -0.172504
104 Ar 11.2494 6.63303 4.34551
105 Ar 11.0881 6.41935 8.96713
106 Ar 11.0262 11.2065 0.0579293
107 Ar 11.211 11.0472 4.49763
108 Ar 11.1567 11.2734 8.92595
ITEM: TIMESTEP
24060
ITEM: NUMBER OF ATOMS
108
ITEM: BOX BOUNDS pp pp pp
0.0000000000000000e+00 1.3349999400000000e+01
0.0000000000000000e+00 1.3349999400000000e+01
0.0000000000000000e+00 1.3349999400000000e+01
ITEM: ATOMS id element xu yu zu
1 Ar 0.0209102 0.104203 0.128655
2 Ar -0.0130842 0.00989329 4.49516
3 Ar 0.0353415 -0.0733696 8.92699
4 Ar -0.0669343 4.56506 -0.08358
5 Ar -0.266733 4.44286 4.58827
6 Ar 0.0519261 4.43935 8.9894
7 Ar 0.0271937 8.94619 -0.062513
8 Ar 0.206559 8.92715 4.32378
9 Ar 0.223967 8.88883 8.84128
10 Ar 4.46756 0.0690248 -0.0698479
11 Ar 4.27456 -0.111294 4.42712
12 Ar 4.6334 -0.00460999 8.97933
13 Ar 4.52214 4.42262 -0.0198913
14 Ar 4.22858 4.45363 4.38158
15 Ar 4.43588 4.41235 8.78904
16 Ar 4.41117 8.86709 -0.0196579
17 Ar 4.36561 8.89952 4.31608
18 Ar 4.45618 8.89775 8.95547
19 Ar 8.78149 0.128081 0.223135
20 Ar 8.77126 -0.0288016 4.23841
21 Ar 8.86551 -0.0187497 8.87286
22 Ar 8.83395 4.35175 -0.0210752
23 Ar 8.89406 4.60247 4.48073
24 Ar 8.74542 4.22377 9.01195
25 Ar 9.05915 8.84956 -0.0433166
26 Ar 8.90143 8.77408 4.45341
27 Ar 8.86345 8.90122 8.83757
28 Ar -0.0683781 2.36088 2.41018
29 Ar -0.172814 2.19459 6.69618
30 Ar -0.00992853 2.32794 11.1619
31 Ar 0.0117673 6.63176 2.07523
32 Ar -0.0519829 6.67093 6.92838
33 Ar 0.0171109 6.79569 11.1329
34 Ar -0.180908 11.2427 2.23482
35 Ar 0.163565 11.2413 6.62487
36 Ar -0.0293461 11.2263 11.2303
37 Ar 4.3438 2.12047 2.36322
38 Ar 4.48319 2.16784 6.64594
39 Ar 4.49794 2.22542 11.1246
40 Ar 4.47793 6.67493 2.09527
41 Ar 4.4655 6.86124 6.77838
42 Ar 4.64142 6.62399 11.1243
43 Ar 4.39836 11.2361 2.16864
44 Ar 4.47386 11.0965 6.74205
45 Ar 4.6919 11.1105 11.0533
46 Ar 8.91076 2.35417 2.31745
47 Ar 8.77498 2.23773 6.54398
48 Ar 8.92513 2.14825 11.194
49 Ar 8.95222 6.63951 2.34902
50 Ar 9.04944 6.78497 6.57892
51 Ar 9.02419 6.7616 10.9842
52 Ar 9.06254 11.1179 2.42399
53 Ar 8.90596 11.1892 6.73629
54 Ar 8.85516 11.1063 11.0584
55 Ar 2.26859 -0.0112674 2.25155
56 Ar 2.26958 -0.0441143 6.66721
57 Ar 2.34449 0.11655 11.0583
58 Ar 2.09138 4.56107 2.16081
59 Ar 1.91559 4.38733 6.66044
60 Ar 2.41509 4.32584 11.1254
61 Ar 2.35459 8.92036 2.04357
62 Ar 2.23217 8.82203 6.64207
63 Ar 2.24239 8.78229 11.2322
64 Ar 6.57288 -0.078998 2.04846
65 Ar 6.7374 -0.0439906 6.64656
66 Ar 6.6569 0.0739566 11.2919
67 Ar 6.61163 4.46269 2.469
68 Ar 6.56312 4.57602 6.66772
69 Ar 6.58464 4.34387 10.9289
70 Ar 6.68829 8.90055 2.23024
71 Ar 6.77049 8.87733 6.58879
72 Ar 6.64541 8.94667 11.1852
73 Ar 11.2158 0.111752 2.27815
74 Ar 10.9518 -0.0165629 6.72962
75 Ar 11.1387 0.163359 11.2872
76 Ar 11.142 4.38319 2.21622
77 Ar 11.1005 4.45731 6.70754
78 Ar 10.9591 4.40788 11.175
79 Ar 11.2459 8.81857 2.26126
80 Ar 11.1715 8.92807 6.63538
81 Ar 11.3343 9.07794 11.03
82 Ar 2.03706 2.18558 0.173545
83 Ar 2.0538 2.28886 4.59001
84 Ar 2.15961 2.17272 8.82755
85 Ar 2.23699 6.6377 -0.0841525
86 Ar 2.28878 6.5989 4.24111
87 Ar 2.28069 6.53784 8.96101
88 Ar 2.15076 11.2794 0.113132
89 Ar 2.20362 11.1227 4.308
90 Ar 2.30347 11.1029 8.94089
91 Ar 6.50461 2.3245 0.167552
92 Ar 6.71345 2.06411 4.34158
93 Ar 6.59782 2.12699 8.81462
94 Ar 6.8476 6.53288 -0.228092
95 Ar 6.51321 6.70054 4.45968
96 Ar 6.79413 6.76019 8.91215
97 Ar 6.69709 10.9735 0.150991
98 Ar 6.63486 11.1621 4.38845
99 Ar 6.86113 11.1047 8.71753
100 Ar 11.1744 2.15757 -0.155424
101 Ar 11.0052 2.13271 4.58957
102 Ar 11.3141 2.06119 9.00782
103 Ar 11.0773 6.80035 -0.171994
104 Ar 11.2663 6.6329 4.32597
105 Ar 11.0702 6.43786 8.97208
106 Ar 11.0205 11.1994 0.0394792
107 Ar 11.2084 11.0436 4.48915
108 Ar 11.1673 11.27 8.92207
ITEM: TIMESTEP
24070
ITEM: NUMBER OF ATOMS
108
ITEM: BOX BOUNDS pp pp pp
0.0000000000000000e+00 1.3349999400000000e+01
0.0000000000000000e+00 1.3349999400000000e+01
0.0000000000000000e+00 1.3349999400000000e+01
ITEM: ATOMS id element xu yu zu
1 Ar 0.0145468 0.0915721 0.141178
2 Ar -0.0179483 0.0175245 4.48061
3 Ar 0.0335478 -0.0830211 8.94763
4 Ar -0.0713782 4.56999 -0.0961328
5 Ar -0.260252 4.46514 4.59858
6 Ar 0.0541657 4.43616 8.99121
7 Ar 0.0382319 8.94052 -0.0667101
8 Ar 0.23148 8.88741 4.31871
9 Ar 0.220101 8.87762 8.84236
10 Ar 4.48865 0.0861453 -0.0563659
11 Ar 4.26037 -0.135178 4.42644
12 Ar 4.62677 -0.00901323 8.99577
13 Ar 4.51093 4.43427 -0.00886781
14 Ar 4.2189 4.46826 4.36455
15 Ar 4.44682 4.43671 8.79026
16 Ar 4.39772 8.894 -0.027411
17 Ar 4.38138 8.89613 4.29871
18 Ar 4.42201 8.90485 8.96637
19 Ar 8.7969 0.118408 0.203603
20 Ar 8.78773 -0.0375149 4.24651
21 Ar 8.88045 -0.0225852 8.88183
22 Ar 8.82575 4.33501 -0.0340962
23 Ar 8.88082 4.58845 4.48192
24 Ar 8.7271 4.21692 8.99863
25 Ar 9.04187 8.8535 -0.052503
26 Ar 8.88258 8.77269 4.45903
27 Ar 8.85659 8.88409 8.83202
28 Ar -0.111803 2.3595 2.40992
29 Ar -0.16622 2.20885 6.709
30 Ar -0.0229186 2.28538 11.1522
31 Ar 0.0245493 6.64529 2.08586
32 Ar -0.0314743 6.68311 6.93931
33 Ar 0.02722 6.80646 11.1406
34 Ar -0.200036 11.2344 2.2378
35 Ar 0.158359 11.2553 6.60028
36 Ar -0.00150472 11.2275 11.2428
37 Ar 4.35216 2.12887 2.37814
38 Ar 4.49762 2.16283 6.65485
39 Ar 4.48744 2.21116 11.1166
40 Ar 4.46754 6.67109 2.10141
41 Ar 4.46519 6.84718 6.776
42 Ar 4.65517 6.61267 11.1251
43 Ar 4.38614 11.2551 2.17422
44 Ar 4.48562 11.1116 6.73698
45 Ar 4.69406 11.0965 11.0638
46 Ar 8.90234 2.35747 2.28617
47 Ar 8.78835 2.25422 6.54995
48 Ar 8.92093 2.15174 11.1882
49 Ar 8.9258 6.63755 2.36029
50 Ar 9.04336 6.79406 6.56294
51 Ar 9.02431 6.75818 10.9721
52 Ar 9.06864 11.096 2.41947
53 Ar 8.91026 11.2118 6.73354
54 Ar 8.86977 11.0876 11.073
55 Ar 2.25686 -0.0157026 2.26335
56 Ar 2.26502 -0.0270373 6.65563
57 Ar 2.33616 0.112395 11.0848
58 Ar 2.1032 4.55668 2.15889
59 Ar 1.93877 4.37928 6.65969
60 Ar 2.41381 4.32209 11.134
61 Ar 2.35979 8.92525 2.05748
62 Ar 2.24125 8.82188 6.65584
63 Ar 2.25353 8.77809 11.2259
64 Ar 6.56507 -0.0650868 2.05156
65 Ar 6.72521 -0.0258263 6.66208
66 Ar 6.66902 0.0496463 11.3001
67 Ar 6.61684 4.46172 2.47372
68 Ar 6.57304 4.58403 6.67294
69 Ar 6.58949 4.32728 10.9424
70 Ar 6.70172 8.89666 2.2161
71 Ar 6.76927 8.89438 6.59593
72 Ar 6.62902 8.95208 11.1892
73 Ar 11.2214 0.141923 2.27849
74 Ar 10.9682 -0.0175339 6.72221
75 Ar 11.1482 0.156662 11.2812
76 Ar 11.1265 4.37891 2.19545
77 Ar 11.0929 4.44405 6.69095
78 Ar 10.9625 4.40733 11.1622
79 Ar 11.23 8.83651 2.26692
80 Ar 11.1747 8.93022 6.61993
81 Ar 11.3533 9.09512 11.0294
82 Ar 2.04307 2.18841 0.187353
83 Ar 2.06735 2.29141 4.58779
84 Ar 2.17782 2.1648 8.815
85 Ar 2.24155 6.63627 -0.0817213
86 Ar 2.26637 6.58958 4.24131
87 Ar 2.26802 6.54212 8.95374
88 Ar 2.14992 11.2698 0.116048
89 Ar 2.21146 11.1081 4.30682
90 Ar 2.30841 11.1017 8.94079
91 Ar 6.51044 2.3408 0.176915
92 Ar 6.69799 2.05854 4.34797
93 Ar 6.60417 2.14534 8.83834
94 Ar 6.85541 6.51367 -0.201955
95 Ar 6.49917 6.70912 4.47083
96 Ar 6.79277 6.7553 8.91677
97 Ar 6.69568 10.9904 0.16763
98 Ar 6.64364 11.1521 4.38102
99 Ar 6.84861 11.0936 8.69663
100 Ar 11.1856 2.12702 -0.163036
101 Ar 10.9853 2.15436 4.57186
102 Ar 11.3202 2.06877 8.9834
103 Ar 11.0619 6.8155 -0.169282
104 Ar 11.2825 6.63516 4.30883
105 Ar 11.0531 6.45943 8.97588
106 Ar 11.0151 11.1925 0.0205618
107 Ar 11.205 11.0412 4.48203
108 Ar 11.178 11.2645 8.91802
ITEM: TIMESTEP
24080
ITEM: NUMBER OF ATOMS
108
ITEM: BOX BOUNDS pp pp pp
0.0000000000000000e+00 1.3349999400000000e+01
0.0000000000000000e+00 1.3349999400000000e+01
0.0000000000000000e+00 1.3349999400000000e+01
ITEM: ATOMS id element xu yu zu
1 Ar 0.00786968 0.0777552 0.152137
2 Ar -0.0228136 0.0256108 4.46617
3 Ar 0.0329461 -0.0921432 8.968
4 Ar -0.0758768 4.57324 -0.109019
5 Ar -0.249686 4.48709 4.60672
6 Ar 0.0549341 4.43259 8.99437
7 Ar 0.0487699 8.93564 -0.0683009
8 Ar 0.254234 8.84672 4.31501
9 Ar 0.213579 8.86878 8.84494
10 Ar 4.50706 0.101989 -0.0424882
11 Ar 4.24988 -0.156762 4.42772
12 Ar 4.61793 -0.0146527 9.01052
13 Ar 4.49818 4.44617 0.00354508
14 Ar 4.2119 4.48162 4.3503
15 Ar 4.4569 4.46077 8.79123
16 Ar 4.38649 8.92129 -0.03568
17 Ar 4.39774 8.89364 4.28325
18 Ar 4.38875 8.91167 8.97703
19 Ar 8.81422 0.107185 0.182442
20 Ar 8.80604 -0.0458891 4.25712
21 Ar 8.89536 -0.0240486 8.89311
22 Ar 8.81864 4.31938 -0.0462815
23 Ar 8.86781 4.5727 4.48426
24 Ar 8.71223 4.2121 8.98204
25 Ar 9.02207 8.85896 -0.0606874
26 Ar 8.8646 8.77419 4.46356
27 Ar 8.85305 8.86791 8.8272
28 Ar -0.153446 2.35723 2.40817
29 Ar -0.158422 2.22143 6.72183
30 Ar -0.0328331 2.24249 11.1425
31 Ar 0.0364503 6.66003 2.0969
32 Ar -0.0114449 6.69521 6.94599
33 Ar 0.036428 6.8142 11.1466
34 Ar -0.216249 11.2243 2.23999
35 Ar 0.151109 11.2663 6.577
36 Ar 0.0283094 11.2297 11.2544
37 Ar 4.36012 2.13922 2.392