ITEM: TIMESTEP
44000
ITEM: NUMBER OF ATOMS
108
ITEM: BOX BOUNDS pp pp pp
0.0000000000000000e+00 1.3349999400000000e+01
0.0000000000000000e+00 1.3349999400000000e+01
0.0000000000000000e+00 1.3349999400000000e+01
ITEM: ATOMS id element xu yu zu
1 Ar 0.0903865 0.0408947 0.00387159
2 Ar -0.0466271 -0.0840917 4.5214
3 Ar 0.0560096 -0.110206 8.84473
4 Ar 0.0667598 4.17219 -0.0645317
5 Ar -0.0352503 4.42227 4.58982
6 Ar -0.0835291 4.4403 8.83981
7 Ar 0.0361692 8.93984 0.0552033
8 Ar -0.149119 8.91375 4.48417
9 Ar 0.0965327 8.79375 8.90076
10 Ar 4.61159 -0.0827271 0.243926
11 Ar 4.45118 0.245897 4.34387
12 Ar 4.28929 -0.0472166 8.82056
13 Ar 4.36495 4.475 -0.135243
14 Ar 4.47535 4.5406 4.41799
15 Ar 4.65343 4.26396 8.92493
16 Ar 4.56368 8.79829 0.0959681
17 Ar 4.36678 8.82514 4.36283
18 Ar 4.55072 9.16521 8.95277
19 Ar 9.16581 -0.155523 -0.0408206
20 Ar 8.93697 0.106916 4.33544
21 Ar 8.82866 -0.00676654 8.83909
22 Ar 9.01206 4.46069 -0.179843
23 Ar 8.93438 4.50265 4.41484
24 Ar 8.80178 4.36293 8.99033
25 Ar 9.14426 8.93951 0.00870078
26 Ar 8.83909 8.68282 4.84228
27 Ar 8.73386 9.15888 8.89031
28 Ar -0.0173282 2.23565 2.08315
29 Ar -0.228532 1.99146 6.73994
30 Ar 0.0935331 2.13365 11.0774
31 Ar -0.1555 6.84158 2.40378
32 Ar -0.101267 6.47895 6.75778
33 Ar -0.127219 6.72241 11.1129
34 Ar 0.098432 11.0911 2.30423
35 Ar -0.0279953 11.0787 6.59464
36 Ar 0.10481 11.2182 11.2427
37 Ar 4.36707 2.42724 2.03674
38 Ar 4.50561 2.23182 6.55673
39 Ar 4.33147 2.28081 11.3118
40 Ar 4.34054 6.67119 2.21583
41 Ar 4.48255 6.555 6.66864
42 Ar 4.37435 6.82427 11.0484
43 Ar 4.6029 11.1168 2.25737
44 Ar 4.50861 11.2155 6.45134
45 Ar 4.47063 11.1615 11.3083
46 Ar 9.00796 2.37904 2.00378
47 Ar 8.83131 2.26411 6.73819
48 Ar 8.95397 2.31477 11.1408
49 Ar 8.92747 6.60344 2.25649
50 Ar 8.77877 6.55844 6.78716
51 Ar 8.78509 6.82855 11.0094
52 Ar 8.79831 11.2042 2.2314
53 Ar 8.7138 11.2526 6.72104
54 Ar 8.87535 11.1123 11.0516
55 Ar 2.07693 -0.0731224 2.27007
56 Ar 2.27435 -0.15222 6.60952
57 Ar 2.2145 0.0909985 11.1954
58 Ar 2.12251 4.33297 2.14462
59 Ar 2.33335 4.33838 6.64276
60 Ar 2.24875 4.4572 10.9783
61 Ar 2.20141 8.83827 2.1055
62 Ar 2.1495 8.84527 6.6823
63 Ar 2.24467 8.82757 11.0189
64 Ar 6.80665 0.430155 2.26704
65 Ar 6.62254 0.0113423 6.34156
66 Ar 6.63796 -0.0327027 11.1937
67 Ar 6.77427 4.6073 2.1011
68 Ar 6.74065 4.4398 6.88375
69 Ar 6.60725 4.49999 11.2752
70 Ar 6.97229 8.82923 2.45656
71 Ar 6.46618 8.90173 6.76832
72 Ar 6.75373 8.95219 11.1322
73 Ar 11.1093 -0.0334536 2.41717
74 Ar 11.0669 -0.0235726 6.75811
75 Ar 10.9562 -0.128942 11.0504
76 Ar 11.1888 4.58961 2.14668
77 Ar 10.9774 4.33488 6.69211
78 Ar 11.1187 4.44563 11.1287
79 Ar 10.9389 8.89584 2.34119
80 Ar 11.1266 8.90012 6.79924
81 Ar 11.2904 9.01943 11.0563
82 Ar 2.45748 2.10232 0.0793689
83 Ar 2.19408 2.11557 4.3476
84 Ar 2.24758 2.18871 8.68263
85 Ar 2.0514 6.62697 -0.160866
86 Ar 2.11429 6.62647 4.52068
87 Ar 2.42901 6.73421 8.83395
88 Ar 2.26462 11.1866 -0.00571638
89 Ar 2.441 10.9021 4.36751
90 Ar 2.12167 11.0498 8.75961
91 Ar 6.56222 2.24299 -0.160716
92 Ar 6.64602 2.55827 4.33682
93 Ar 6.60298 2.05638 9.06755
94 Ar 6.70273 6.81235 0.154342
95 Ar 6.81408 6.64105 4.49579
96 Ar 6.49736 6.66439 8.99417
97 Ar 6.83608 11.0495 0.0173789
98 Ar 6.71321 11.1424 4.29222
99 Ar 6.76242 11.3484 8.70275
100 Ar 11.2227 2.07122 -0.0893013
101 Ar 11.1729 2.18406 4.51878
102 Ar 11.1671 2.12109 8.97319
103 Ar 11.2069 6.83554 0.0218009
104 Ar 11.0322 6.66482 4.64328
105 Ar 11.1181 6.65796 8.88201
106 Ar 11.2016 11.0657 0.110738
107 Ar 10.9224 11.2381 4.59745
108 Ar 11.1773 11.1607 8.89562
ITEM: TIMESTEP
44010
ITEM: NUMBER OF ATOMS
108
ITEM: BOX BOUNDS pp pp pp
0.0000000000000000e+00 1.3349999400000000e+01
0.0000000000000000e+00 1.3349999400000000e+01
0.0000000000000000e+00 1.3349999400000000e+01
ITEM: ATOMS id element xu yu zu
1 Ar 0.0700158 0.0311176 0.00350928
2 Ar -0.0396057 -0.0812839 4.50427
3 Ar 0.0656804 -0.117164 8.81566
4 Ar 0.075661 4.19259 -0.0640789
5 Ar -0.0277342 4.40031 4.57865
6 Ar -0.0807974 4.44613 8.85609
7 Ar 0.0408726 8.94508 0.0580921
8 Ar -0.145395 8.91132 4.46712
9 Ar 0.0890282 8.79481 8.90862
10 Ar 4.61154 -0.0771009 0.231632
11 Ar 4.4561 0.224224 4.3577
12 Ar 4.27345 -0.0381375 8.81506
13 Ar 4.36019 4.47663 -0.140065
14 Ar 4.47779 4.55432 4.43938
15 Ar 4.65573 4.26474 8.9228
16 Ar 4.5822 8.7793 0.0971469
17 Ar 4.37143 8.8104 4.36042
18 Ar 4.54809 9.14552 8.93561
19 Ar 9.17329 -0.130234 -0.0341364
20 Ar 8.93242 0.110618 4.3384
21 Ar 8.80535 -0.00644021 8.83164
22 Ar 9.00149 4.44716 -0.163246
23 Ar 8.94 4.5101 4.4133
24 Ar 8.80399 4.38602 8.99233
25 Ar 9.13853 8.94466 -0.00148912
26 Ar 8.81808 8.69398 4.84568
27 Ar 8.74175 9.16132 8.8888
28 Ar -0.00840079 2.22603 2.07482
29 Ar -0.224481 2.00263 6.74772
30 Ar 0.0939057 2.13792 11.0802
31 Ar -0.169154 6.82454 2.39411
32 Ar -0.0964257 6.46957 6.7525
33 Ar -0.146926 6.73862 11.1172
34 Ar 0.108496 11.0959 2.31553
35 Ar -0.0307944 11.0786 6.57184
36 Ar 0.101393 11.2381 11.2617
37 Ar 4.37902 2.41987 2.05073
38 Ar 4.50157 2.2332 6.5637
39 Ar 4.33645 2.28106 11.3124
40 Ar 4.35623 6.66897 2.23598
41 Ar 4.48809 6.5453 6.67526
42 Ar 4.38408 6.80325 11.0369
43 Ar 4.59163 11.0879 2.24836
44 Ar 4.50284 11.1931 6.46898
45 Ar 4.47163 11.1619 11.3057
46 Ar 9.00615 2.38614 1.99895
47 Ar 8.80887 2.23334 6.7168
48 Ar 8.95475 2.32175 11.1239
49 Ar 8.92119 6.59602 2.2567
50 Ar 8.76887 6.54363 6.78169
51 Ar 8.78597 6.83861 11.022
52 Ar 8.78463 11.2099 2.21801
53 Ar 8.7061 11.2315 6.72704
54 Ar 8.89794 11.1057 11.0559
55 Ar 2.07589 -0.0755855 2.28548
56 Ar 2.27515 -0.137686 6.61944
57 Ar 2.22481 0.0750861 11.1914
58 Ar 2.13501 4.3326 2.15133
59 Ar 2.32463 4.32935 6.63533
60 Ar 2.25076 4.45804 10.9834
61 Ar 2.21005 8.84987 2.10593
62 Ar 2.13745 8.85499 6.67958
63 Ar 2.22679 8.83109 11.0147
64 Ar 6.82454 0.427822 2.26673
65 Ar 6.62621 0.0152176 6.34626
66 Ar 6.6439 -0.0310721 11.1782
67 Ar 6.77184 4.60686 2.12402
68 Ar 6.72118 4.44009 6.88493
69 Ar 6.61849 4.51537 11.2679
70 Ar 6.98338 8.84014 2.44511
71 Ar 6.46357 8.90346 6.7709
72 Ar 6.75837 8.9656 11.1369
73 Ar 11.101 -0.0188435 2.42077
74 Ar 11.0612 -0.0081924 6.76698
75 Ar 10.9479 -0.125529 11.0554
76 Ar 11.1897 4.57876 2.12641
77 Ar 10.9715 4.32932 6.70597
78 Ar 11.1313 4.44314 11.126
79 Ar 10.9488 8.89186 2.34952
80 Ar 11.1388 8.90021 6.78257
81 Ar 11.2864 9.0245 11.0544
82 Ar 2.43498 2.10075 0.0680783
83 Ar 2.19769 2.12217 4.33806
84 Ar 2.24946 2.17508 8.67601
85 Ar 2.05458 6.64314 -0.162666
86 Ar 2.13152 6.65383 4.49862
87 Ar 2.43252 6.76442 8.83941
88 Ar 2.23153 11.1776 0.00450307
89 Ar 2.43543 10.9217 4.36889
90 Ar 2.12199 11.0198 8.76037
91 Ar 6.57649 2.24731 -0.144191
92 Ar 6.65705 2.56638 4.36016
93 Ar 6.58628 2.06263 9.0566
94 Ar 6.69589 6.79197 0.141894
95 Ar 6.80204 6.6462 4.4854
96 Ar 6.52955 6.66772 9.01083
97 Ar 6.82683 11.0513 0.00890818
98 Ar 6.72099 11.1288 4.29348
99 Ar 6.7704 11.3383 8.69982
100 Ar 11.21 2.06819 -0.0792075
101 Ar 11.1918 2.19873 4.50462
102 Ar 11.1734 2.12232 8.99171
103 Ar 11.2173 6.81518 0.0240993
104 Ar 11.0469 6.64792 4.62927
105 Ar 11.1144 6.66189 8.90135
106 Ar 11.1985 11.0683 0.116866
107 Ar 10.9053 11.2516 4.61562
108 Ar 11.1757 11.1674 8.89262
ITEM: TIMESTEP
44020
ITEM: NUMBER OF ATOMS
108
ITEM: BOX BOUNDS pp pp pp
0.0000000000000000e+00 1.3349999400000000e+01
0.0000000000000000e+00 1.3349999400000000e+01
0.0000000000000000e+00 1.3349999400000000e+01
ITEM: ATOMS id element xu yu zu
1 Ar 0.0477827 0.0204121 0.00370582
2 Ar -0.0317206 -0.0781224 4.48682
3 Ar 0.075365 -0.123684 8.78865
4 Ar 0.0840443 4.21704 -0.0650857
5 Ar -0.0200082 4.37742 4.56565
6 Ar -0.0762296 4.45057 8.87352
7 Ar 0.0450886 8.95042 0.0602506
8 Ar -0.140606 8.90938 4.451
9 Ar 0.0796526 8.79683 8.91552
10 Ar 4.61026 -0.071403 0.218011
11 Ar 4.4612 0.199893 4.36889
12 Ar 4.26018 -0.0298266 8.81136
13 Ar 4.3556 4.4822 -0.142413
14 Ar 4.47912 4.56743 4.45969
15 Ar 4.65378 4.26704 8.92172
16 Ar 4.59877 8.76283 0.0974203
17 Ar 4.3791 8.79393 4.35932
18 Ar 4.54401 9.12546 8.91874
19 Ar 9.17586 -0.102834 -0.0259972
20 Ar 8.926 0.115876 4.34383
21 Ar 8.78358 -0.00369538 8.82552
22 Ar 8.99021 4.43612 -0.145047
23 Ar 8.94625 4.51522 4.41213
24 Ar 8.80738 4.40989 8.99506
25 Ar 9.12936 8.94904 -0.0125966
26 Ar 8.79898 8.70985 4.84664
27 Ar 8.75221 9.15894 8.88568
28 Ar -0.000563667 2.21519 2.07032
29 Ar -0.215683 2.01747 6.75448
30 Ar 0.0936451 2.14263 11.0818
31 Ar -0.18027 6.80494 2.3825
32 Ar -0.0897288 6.46298 6.74634
33 Ar -0.164376 6.7526 11.1212
34 Ar 0.11556 11.0999 2.32681
35 Ar -0.0334479 11.0785 6.54945
36 Ar 0.0968621 11.2567 11.278
37 Ar 4.39473 2.41151 2.06924
38 Ar 4.49787 2.23444 6.57168
39 Ar 4.34294 2.27847 11.3075
40 Ar 4.37235 6.66522 2.25564
41 Ar 4.49341 6.53742 6.68172
42 Ar 4.39559 6.78072 11.0279
43 Ar 4.57985 11.0587 2.23831
44 Ar 4.49698 11.1696 6.48822
45 Ar 4.47218 11.1618 11.3012
46 Ar 9.0049 2.39294 1.99595
47 Ar 8.78636 2.20152 6.69469
48 Ar 8.95407 2.32541 11.1072
49 Ar 8.9172 6.58984 2.25572
50 Ar 8.76044 6.53002 6.7791
51 Ar 8.78978 6.84715 11.0359
52 Ar 8.77369 11.2155 2.20511
53 Ar 8.70229 11.2089 6.72869
54 Ar 8.9205 11.0996 11.0616
55 Ar 2.07807 -0.0776551 2.3007
56 Ar 2.27459 -0.121764 6.62721
57 Ar 2.23716 0.0573978 11.1855
58 Ar 2.14722 4.33634 2.15963
59 Ar 2.31401 4.32152 6.62827
60 Ar 2.25132 4.45898 10.9878
61 Ar 2.21913 8.86111 2.10728
62 Ar 2.127 8.86423 6.67531
63 Ar 2.20867 8.83746 11.0131
64 Ar 6.84105 0.421705 2.26551
65 Ar 6.63039 0.0213835 6.35344
66 Ar 6.65038 -0.0299234 11.1629
67 Ar 6.76718 4.60387 2.14641
68 Ar 6.70091 4.43928 6.88274
69 Ar 6.63064 4.5316 11.2591
70 Ar 6.99164 8.85113 2.43087
71 Ar 6.46271 8.90449 6.77135
72 Ar 6.76056 8.9795 11.1422
73 Ar 11.0947 -0.00419159 2.42058
74 Ar 11.0537 0.00642454 6.77507
75 Ar 10.9438 -0.120745 11.0599
76 Ar 11.1913 4.56578 2.10696
77 Ar 10.9666 4.32427 6.721
78 Ar 11.1452 4.44134 11.123
79 Ar 10.9591 8.88963 2.3597
80 Ar 11.1504 8.90036 6.7663
81 Ar 11.2801 9.02943 11.0526
82 Ar 2.40696 2.09905 0.0557249
83 Ar 2.19997 2.13092 4.33033
84 Ar 2.25035 2.16193 8.67191
85 Ar 2.05888 6.65886 -0.162109
86 Ar 2.14872 6.6811 4.47593
87 Ar 2.43375 6.7919 8.84406
88 Ar 2.20001 11.1674 0.0157087
89 Ar 2.42595 10.9445 4.37067
90 Ar 2.12412 10.9908 8.76347
91 Ar 6.59395 2.25188 -0.125749
92 Ar 6.66921 2.57244 4.38434
93 Ar 6.57012 2.06885 9.04426
94 Ar 6.69037 6.77078 0.126726
95 Ar 6.78605 6.64997 4.47544
96 Ar 6.56331 6.67226 9.02622
97 Ar 6.81637 11.0537 0.00115175
98 Ar 6.72844 11.1156 4.29724
99 Ar 6.77148 11.3277 8.70132
100 Ar 11.1966 2.06665 -0.0693282
101 Ar 11.2092 2.21461 4.48842
102 Ar 11.1783 2.12446 9.01048
103 Ar 11.2269 6.79255 0.0254239
104 Ar 11.0624 6.63084 4.61441
105 Ar 11.1083 6.66624 8.92099
106 Ar 11.1967 11.0719 0.122945
107 Ar 10.8892 11.2614 4.63235
108 Ar 11.1742 11.1728 8.88889
ITEM: TIMESTEP
44030
ITEM: NUMBER OF ATOMS
108
ITEM: BOX BOUNDS pp pp pp
0.0000000000000000e+00 1.3349999400000000e+01
0.0000000000000000e+00 1.3349999400000000e+01
0.0000000000000000e+00 1.3349999400000000e+01
ITEM: ATOMS id element xu yu zu
1 Ar 0.024016 0.00912464 0.00461909
2 Ar -0.0232829 -0.0744099 4.46957
3 Ar 0.0849658 -0.129891 8.76415
4 Ar 0.0918084 4.24512 -0.0673614
5 Ar -0.0119759 4.35419 4.55097
6 Ar -0.069773 4.45378 8.89181
7 Ar 0.0484524 8.95569 0.0617806
8 Ar -0.134728 8.90781 4.43587
9 Ar 0.0682605 8.79983 8.92117
10 Ar 4.60772 -0.065736 0.203412
11 Ar 4.46645 0.173191 4.37739
12 Ar 4.24985 -0.0226836 8.80952
13 Ar 4.35127 4.49126 -0.142147
14 Ar 4.47931 4.57948 4.47867
15 Ar 4.64738 4.27109 8.92183
16 Ar 4.61312 8.74894 0.0966593
17 Ar 4.38951 8.77656 4.35973
18 Ar 4.53863 9.10505 8.90267
19 Ar 9.17329 -0.0738832 -0.016636
20 Ar 8.91796 0.122603 4.35156
21 Ar 8.76371 0.00137719 8.82084
22 Ar 8.97845 4.42774 -0.1259
23 Ar 8.9531 4.51797 4.41144
24 Ar 8.81186 4.43402 8.99828
25 Ar 9.1172 8.95241 -0.0241577
26 Ar 8.78228 8.72967 4.8452
27 Ar 8.7652 9.15165 8.88109
28 Ar 0.00620366 2.20347 2.06936
29 Ar -0.202498 2.03579 6.76005
30 Ar 0.0929405 2.14746 11.0824
31 Ar -0.188379 6.78304 2.36908
32 Ar -0.0812909 6.45906 6.73938
33 Ar -0.179111 6.76422 11.1248
34 Ar 0.119242 11.1032 2.33792
35 Ar -0.0358732 11.0785 6.52772
36 Ar 0.0910015 11.2737 11.2913
37 Ar 4.41352 2.40221 2.09149
38 Ar 4.49449 2.2354 6.58034
39 Ar 4.35095 2.27316 11.2976
40 Ar 4.3888 6.65999 2.27429
41 Ar 4.49834 6.53163 6.68833
42 Ar 4.40854 6.75726 11.0215
43 Ar 4.56777 11.0298 2.22729
44 Ar 4.49097 11.1455 6.50875
45 Ar 4.47207 11.1611 11.2949
46 Ar 9.00415 2.39933 1.99525
47 Ar 8.76431 2.16966 6.67236
48 Ar 8.95183 2.32594 11.091
49 Ar 8.91558 6.58511 2.25348
50 Ar 8.75367 6.51801 6.77894
51 Ar 8.79668 6.85413 11.0513
52 Ar 8.76584 11.221 2.19281
53 Ar 8.70237 11.1854 6.7261
54 Ar 8.94269 11.0941 11.0687
55 Ar 2.08367 -0.0791957 2.31515
56 Ar 2.27272 -0.104907 6.63249
57 Ar 2.25119 0.0382267 11.1779
58 Ar 2.15914 4.34407 2.16927
59 Ar 2.30154 4.31514 6.62173
60 Ar 2.25043 4.46008 10.9913
61 Ar 2.22854 8.87168 2.10953
62 Ar 2.11813 8.87272 6.66927
63 Ar 2.19085 8.84647 11.0143
64 Ar 6.85578 0.411871 2.26354
65 Ar 6.63473 0.0292269 6.36308
66 Ar 6.65737 -0.0291949 11.1482
67 Ar 6.76027 4.59836 2.16804
68 Ar 6.68044 4.43738 6.87737
69 Ar 6.64353 4.54807 11.2491
70 Ar 6.997 8.86177 2.41376
71 Ar 6.4637 8.90455 6.76969
72 Ar 6.76024 8.99371 11.1477
73 Ar 11.0903 0.0101792 2.41682
74 Ar 11.0448 0.0203549 6.78224
75 Ar 10.9439 -0.114598 11.0639
76 Ar 11.1933 4.55063 2.08858
77 Ar 10.9626 4.31958 6.73703
78 Ar 11.1598 4.44015 11.1202
79 Ar 10.9696 8.88919 2.37133
80 Ar 11.1613 8.90028 6.75053
81 Ar 11.2717 9.03432 11.0513
82 Ar 2.37446 2.0973 0.0428142
83 Ar 2.20125 2.14154 4.32455
84 Ar 2.25012 2.14976 8.67064
85 Ar 2.06437 6.67404 -0.159253
86 Ar 2.1654 6.70778 4.45296
87 Ar 2.43261 6.8162 8.84776
88 Ar 2.17083 11.1561 0.0277089
89 Ar 2.41323 10.9697 4.37303
90 Ar 2.12792 10.9636 8.76878
91 Ar 6.61418 2.25678 -0.105975
92 Ar 6.68212 2.57623 4.4089
93 Ar 6.55479 2.07504 9.03067
94 Ar 6.68635 6.74881 0.109223
95 Ar 6.76659 6.65251 4.46609
96 Ar 6.59817 6.67803 9.03995
97 Ar 6.80483 11.0569 -0.00588283
98 Ar 6.73515 11.1032 4.30349
99 Ar 6.76551 11.3168 8.70737
100 Ar 11.183 2.067 -0.0599281
101 Ar 11.2247 2.23142 4.4705
102 Ar 11.1818 2.1274 9.02906
103 Ar 11.2353 6.76825 0.0257673
104 Ar 11.0785 6.61384 4.59899
105 Ar 11.1 6.67107 8.94034
106 Ar 11.1962 11.0766 0.129097
107 Ar 10.8743 11.2677 4.64722
108 Ar 11.1729 11.1771 8.88437
ITEM: TIMESTEP
44040
ITEM: NUMBER OF ATOMS
108
ITEM: BOX BOUNDS pp pp pp
0.0000000000000000e+00 1.3349999400000000e+01
0.0000000000000000e+00 1.3349999400000000e+01
0.0000000000000000e+00 1.3349999400000000e+01
ITEM: ATOMS id element xu yu zu
1 Ar -0.000919713 -0.00237843 0.00640258
2 Ar -0.0146485 -0.0699502 4.45302
3 Ar 0.0943478 -0.135894 8.74253
4 Ar 0.0988861 4.2763 -0.0706588
5 Ar -0.00356895 4.3313 4.53476
6 Ar -0.0614296 4.45598 8.91063
7 Ar 0.050595 8.96068 0.0627965
8 Ar -0.12774 8.90641 4.42175
9 Ar 0.0547805 8.8038 8.92531
10 Ar 4.60386 -0.0601355 0.188151
11 Ar 4.47183 0.144442 4.38327
12 Ar 4.24278 -0.0170624 8.80956
13 Ar 4.34732 4.50318 -0.139231
14 Ar 4.47832 4.59 4.49614
15 Ar 4.63647 4.27707 8.92324
16 Ar 4.62499 8.73761 0.0947668
17 Ar 4.40233 8.75918 4.36184
18 Ar 4.53211 9.08429 8.88787
19 Ar 9.16545 -0.0439761 -0.0063752
20 Ar 8.90861 0.130611 4.36132
21 Ar 8.74604 0.00851844 8.81763
22 Ar 8.96642 4.42212 -0.106475
23 Ar 8.96052 4.51839 4.41131
24 Ar 8.81731 4.45783 9.00179
25 Ar 9.10257 8.95458 -0.0356843
26 Ar 8.76833 8.75255 4.84136
27 Ar 8.78057 9.13954 8.87524
28 Ar 0.0119559 2.19126 2.07155
29 Ar -0.185425 2.0573 6.76429
30 Ar 0.0919751 2.15208 11.0823
31 Ar -0.193087 6.75918 2.35404
32 Ar -0.0712685 6.45764 6.73174
33 Ar -0.190714 6.77343 11.1281
34 Ar 0.119249 11.1056 2.3487
35 Ar -0.0379955 11.0787 6.50691
36 Ar 0.0836515 11.2888 11.3008
37 Ar 4.43467 2.39203 2.11669
38 Ar 4.49133 2.23598 6.58933
39 Ar 4.36044 2.26538 11.2835
40 Ar 4.4055 6.65337 2.29137
41 Ar 4.50266 6.5282 6.69538
42 Ar 4.42255 6.73342 11.0176
43 Ar 4.55564 11.0017 2.21544
44 Ar 4.4847 11.1214 6.53023
45 Ar 4.47114 11.1597 11.2867
46 Ar 9.00376 2.40517 1.99734
47 Ar 8.7433 2.13877 6.65036
48 Ar 8.94793 2.3236 11.0753
49 Ar 8.9163 6.582 2.24997
50 Ar 8.7487 6.50797 6.78067
51 Ar 8.80675 6.85956 11.0681
52 Ar 8.7613 11.2266 2.18123
53 Ar 8.70606 11.1615 6.71973
54 Ar 8.96415 11.0896 11.0772
55 Ar 2.09284 -0.0800858 2.32823
56 Ar 2.26965 -0.0875624 6.63502
57 Ar 2.26648 0.0178708 11.1688
58 Ar 2.17079 4.35554 2.17998
59 Ar 2.28735 4.31041 6.61586
60 Ar 2.24816 4.46138 10.9939
61 Ar 2.23816 8.88134 2.11269
62 Ar 2.11082 8.88026 6.66131
63 Ar 2.1738 8.85787 11.0186
64 Ar 6.86833 0.398415 2.26095
65 Ar 6.63884 0.0380475 6.37515
66 Ar 6.66481 -0.028815 11.1342
67 Ar 6.75116 4.59041 2.1887
68 Ar 6.66035 4.43445 6.86913
69 Ar 6.65695 4.56411 11.2381
70 Ar 6.99947 8.87169 2.39376
71 Ar 6.46663 8.90342 6.76602
72 Ar 6.75747 9.00802 11.1533
73 Ar 11.0878 0.0239536 2.4098
74 Ar 11.0347 0.0337323 6.78835
75 Ar 10.948 -0.107144 11.0671
76 Ar 11.1958 4.5333 2.07152
77 Ar 10.9594 4.31513 6.75391
78 Ar 11.1747 4.43946 11.118
79 Ar 10.9797 8.89056 2.38399
80 Ar 11.1713 8.89972 6.73533
81 Ar 11.2613 9.03923 11.0505
82 Ar 2.33858 2.09564 0.0297652
83 Ar 2.20188 2.15369 4.32083
84 Ar 2.2487 2.13904 8.67242
85 Ar 2.0711 6.68863 -0.154202
86 Ar 2.18104 6.73338 4.43006
87 Ar 2.429 6.83698 8.85045
88 Ar 2.14467 11.1442 0.0402938
89 Ar 2.39796 10.9968 4.37617
90 Ar 2.1332 10.9388 8.77615
91 Ar 6.63664 2.26207 -0.0854693
92 Ar 6.69537 2.57754 4.43334
93 Ar 6.54056 2.08121 9.01597
94 Ar 6.68395 6.72613 0.0898284
95 Ar 6.74436 6.654 4.45751
96 Ar 6.63361 6.68508 9.05167
97 Ar 6.79239 11.0612 -0.0121692
98 Ar 6.74077 11.0917 4.31214
99 Ar 6.75272 11.3053 8.71788
100 Ar 11.1699 2.06963 -0.0512764
101 Ar 11.2381 2.24884 4.45127
102 Ar 11.1838 2.13104 9.04697
103 Ar 11.2422 6.74289 0.0251354
104 Ar 11.0946 6.59715 4.58334
105 Ar 11.0896 6.67641 8.95885
106 Ar 11.1965 11.0822 0.135408
107 Ar 10.8608 11.2705 4.65985
108 Ar 11.1718 11.1802 8.879
ITEM: TIMESTEP
44050
ITEM: NUMBER OF ATOMS
108
ITEM: BOX BOUNDS pp pp pp
0.0000000000000000e+00 1.3349999400000000e+01
0.0000000000000000e+00 1.3349999400000000e+01
0.0000000000000000e+00 1.3349999400000000e+01
ITEM: ATOMS id element xu yu zu
1 Ar -0.0266276 -0.01373 0.009194
2 Ar -0.00619711 -0.0645533 4.43766
3 Ar 0.103345 -0.141767 8.72404
4 Ar 0.105251 4.31003 -0.0747008
5 Ar 0.00524965 4.30941 4.51724
6 Ar -0.0512602 4.45742 8.92959
7 Ar 0.051158 8.96516 0.0634223
8 Ar -0.119628 8.90497 4.40867
9 Ar 0.0392293 8.80872 8.92777
10 Ar 4.59868 -0.0545801 0.172514
11 Ar 4.47735 0.113983 4.38665
12 Ar 4.23917 -0.0132556 8.81137
13 Ar 4.3438 4.51722 -0.133718
14 Ar 4.47609 4.59854 4.51194
15 Ar 4.62113 4.28514 8.92595
16 Ar 4.63424 8.72876 0.0916709
17 Ar 4.41725 8.74271 4.36576
18 Ar 4.52469 9.0631 8.87474
19 Ar 9.15237 -0.0137148 0.0043825
20 Ar 8.89834 0.139619 4.37269
21 Ar 8.73075 0.0173218 8.81588
22 Ar 8.95434 4.41932 -0.087415
23 Ar 8.96841 4.5166 4.41181
24 Ar 8.82363 4.48077 9.00546
25 Ar 9.08601 8.95545 -0.0466838
26 Ar 8.75739 8.77748 4.83504
27 Ar 8.79807 9.1229 8.86837
28 Ar 0.0167819 2.17896 2.07647
29 Ar -0.165069 2.08161 6.76709
30 Ar 0.0909137 2.15619 11.0817
31 Ar -0.194103 6.73372 2.33758
32 Ar -0.0598548 6.45852 6.72352
33 Ar -0.198839 6.78028 11.1312
34 Ar 0.115396 11.1072 2.35898
35 Ar -0.0397569 11.0794 6.48725
36 Ar 0.0747277 11.3018 11.3062
37 Ar 4.45743 2.38105 2.14407
38 Ar 4.48826 2.23607 6.5983
39 Ar 4.37128 2.25545 11.2658
40 Ar 4.42236 6.64554 2.30628
41 Ar 4.50617 6.52731 6.70312
42 Ar 4.43721 6.70975 11.0159
43 Ar 4.54367 10.9746 2.20293
44 Ar 4.47806 11.0976 6.55226
45 Ar 4.46929 11.1574 11.2768
46 Ar 9.0036 2.41031 2.00267
47 Ar 8.72398 2.1099 6.62928
48 Ar 8.94231 2.31871 11.0604
49 Ar 8.91925 6.5806 2.24525
50 Ar 8.74561 6.50024 6.78365
51 Ar 8.81996 6.86347 11.0865
52 Ar 8.76023 11.2323 2.17049
53 Ar 8.71289 11.138 6.71037
54 Ar 8.98453 11.0861 11.0868
55 Ar 2.10566 -0.0802214 2.33937
56 Ar 2.26555 -0.0701455 6.6346
57 Ar 2.28259 -0.00336935 11.1585
58 Ar 2.18221 4.37037 2.19143
59 Ar 2.27162 4.3075 6.61082
60 Ar 2.24464 4.46289 10.9955
61 Ar 2.24786 8.88985 2.11675
62 Ar 2.10501 8.88667 6.65134
63 Ar 2.15794 8.87135 11.0261
64 Ar 6.8784 0.381467 2.25787
65 Ar 6.64226 0.0470812 6.3896
66 Ar 6.67262 -0.0287064 11.1213
67 Ar 6.74003 4.58021 2.2082
68 Ar 6.64121 4.43064 6.85842
69 Ar 6.6707 4.57904 11.2264
70 Ar 6.99908 8.88055 2.371
71 Ar 6.47156 8.90092 6.76051
72 Ar 6.75239 9.02218 11.1584
73 Ar 11.0869 0.0368343 2.39992
74 Ar 11.0238 0.0467181 6.79325
75 Ar 10.9561 -0.0984793 11.0696
76 Ar 11.1988 4.51384 2.056
77 Ar 10.9571 4.31083 6.77142
78 Ar 11.1893 4.43913 11.1165
79 Ar 10.9891 8.89365 2.39723
80 Ar 11.1803 8.8984 6.72073
81 Ar 11.2491 9.04418 11.0504
82 Ar 2.30046 2.09418 0.0168912
83 Ar 2.20226 2.16698 4.31921
84 Ar 2.24605 2.13019 8.67746
85 Ar 2.07914 6.7026 -0.147092
86 Ar 2.19519 6.75745 4.40758
87 Ar 2.42286 6.85398 8.85218
88 Ar 2.12206 11.132 0.0532316
89 Ar 2.38086 11.025 4.38027
90 Ar 2.13978 10.9168 8.78538
91 Ar 6.66072 2.26779 -0.0648213
92 Ar 6.7085 2.57623 4.4571
93 Ar 6.52766 2.08746 9.00034
94 Ar 6.68323 6.70289 0.0690349
95 Ar 6.72021 6.65465 4.44985
96 Ar 6.6691 6.69347 9.06109
97 Ar 6.77922 11.0668 -0.0176651
98 Ar 6.74496 11.0816 4.32297
99 Ar 6.73375 11.2933 8.73254
100 Ar 11.1577 2.07487 -0.0436415
101 Ar 11.249 2.2665 4.43118
102 Ar 11.1846 2.13527 9.06371
103 Ar 11.247 6.71711 0.0235494
104 Ar 11.1107 6.58094 4.56773
105 Ar 11.0774 6.68227 8.97602
106 Ar 11.1974 11.0886 0.141931
107 Ar 10.8489 11.2702 4.66984
108 Ar 11.171 11.1823 8.87278
ITEM: TIMESTEP
44060
ITEM: NUMBER OF ATOMS
108
ITEM: BOX BOUNDS pp pp pp
0.0000000000000000e+00 1.3349999400000000e+01
0.0000000000000000e+00 1.3349999400000000e+01
0.0000000000000000e+00 1.3349999400000000e+01
ITEM: ATOMS id element xu yu zu
1 Ar -0.0526795 -0.0245836 0.0131003
2 Ar 0.00169179 -0.0580409 4.42388
3 Ar 0.111773 -0.147546 8.70886
4 Ar 0.110919 4.34568 -0.079204
5 Ar 0.0144816 4.28921 4.49859
6 Ar -0.0393877 4.4584 8.94827
7 Ar 0.0498096 8.96888 0.0637895
8 Ar -0.110391 8.90325 4.39662
9 Ar 0.0217208 8.81458 8.92842
10 Ar 4.59216 -0.0490041 0.15675
11 Ar 4.48304 0.0821647 4.38776
12 Ar 4.23912 -0.0114784 8.81477
13 Ar 4.34079 4.53255 -0.125737
14 Ar 4.47254 4.60471 4.52599
15 Ar 4.60157 4.29536 8.92987
16 Ar 4.64075 8.7222 0.0873178
17 Ar 4.43394 8.72798 4.37154
18 Ar 4.5166 9.04139 8.86361
19 Ar 9.13421 0.0163229 0.0151751
20 Ar 8.88758 0.149246 4.38516
21 Ar 8.71799 0.0272691 8.81557
22 Ar 8.94242 4.41935 -0.0693011
23 Ar 8.97667 4.5128 4.41299
24 Ar 8.83068 4.50229 9.0092
25 Ar 9.068 8.95497 -0.0566779
26 Ar 8.74963 8.80339 4.82612
27 Ar 8.81739 9.10215 8.86073
28 Ar 0.0208045 2.16694 2.08365
29 Ar -0.142107 2.10827 6.76841
30 Ar 0.0898907 2.15951 11.0807
31 Ar -0.191247 6.70709 2.31991
32 Ar -0.0472753 6.46147 6.71486
33 Ar -0.203219 6.7849 11.134
34 Ar 0.107612 11.1081 2.3686
35 Ar -0.0411244 11.0806 6.469
36 Ar 0.0642311 11.3125 11.3071
37 Ar 4.48112 2.36938 2.17294
38 Ar 4.4851 2.23559 6.60693
39 Ar 4.38332 2.24377 11.2456
40 Ar 4.43927 6.63669 2.31848
41 Ar 4.50868 6.52912 6.71176
42 Ar 4.45213 6.68681 11.0163
43 Ar 4.53207 10.9492 2.19004
44 Ar 4.47093 11.0747 6.57446
45 Ar 4.46646 11.154 11.2653
46 Ar 9.00351 2.41459 2.01164
47 Ar 8.70704 2.08408 6.60978
48 Ar 8.93492 2.31165 11.0465
49 Ar 8.92421 6.58093 2.23944
50 Ar 8.74442 6.49508 6.7872
51 Ar 8.83623 6.86589 11.1066
52 Ar 8.76267 11.238 2.16075
53 Ar 8.72222 11.1153 6.69902
54 Ar 9.00351 11.0839 11.0972
55 Ar 2.12208 -0.0795176 2.34806
56 Ar 2.26066 -0.0530165 6.63114
57 Ar 2.29902 -0.0251923 11.1474
58 Ar 2.19343 4.38814 2.2033
59 Ar 2.2546 4.30652 6.60676
60 Ar 2.24007 4.46462 10.9963
61 Ar 2.25746 8.89703 2.12173
62 Ar 2.10065 8.89185 6.63939
63 Ar 2.14357 8.88654 11.0367
64 Ar 6.88574 0.361188 2.25445
65 Ar 6.64449 0.0555311 6.40634
66 Ar 6.68069 -0.0287901 11.1096
67 Ar 6.72714 4.56796 2.22638
68 Ar 6.62348 4.42615 6.84573
69 Ar 6.68461 4.59218 11.2141
70 Ar 6.99589 8.88808 2.34565
71 Ar 6.47852 8.89695 6.75342
72 Ar 6.74522 9.0359 11.1627
73 Ar 11.0874 0.0485537 2.38767
74 Ar 11.0124 0.0594726 6.79685
75 Ar 10.9678 -0.0887338 11.0716
76 Ar 11.202 4.4924 2.04224
77 Ar 10.9558 4.30659 6.78936
78 Ar 11.2031 4.43901 11.1163
79 Ar 10.9977 8.89836 2.41062
80 Ar 11.1882 8.89609 6.70676
81 Ar 11.2356 9.04912 11.0514
82 Ar 2.26119 2.09304 0.00440599
83 Ar 2.20279 2.18101 4.3197
84 Ar 2.24221 2.12351 8.68588
85 Ar 2.0885 6.71595 -0.138089
86 Ar 2.20746 6.77957 4.38586
87 Ar 2.41413 6.86705 8.85307
88 Ar 2.1034 11.12 0.066268
89 Ar 2.3626 11.0537 4.38546
90 Ar 2.14744 10.8981 8.79622
91 Ar 6.68577 2.27392 -0.0445824
92 Ar 6.72102 2.57221 4.47957
93 Ar 6.51631 2.09389 8.98391
94 Ar 6.68418 6.67931 0.0473709
95 Ar 6.69513 6.65468 4.44328
96 Ar 6.70408 6.70322 9.068
97 Ar 6.76549 11.0738 -0.022319
98 Ar 6.74743 11.0728 4.33568
99 Ar 6.7095 11.2807 8.75086
100 Ar 11.1468 2.08295 -0.0372844
101 Ar 11.2573 2.284 4.4107
102 Ar 11.1841 2.14001 9.07878
103 Ar 11.2495 6.69152 0.0210498
104 Ar 11.1264 6.56535 4.55243
105 Ar 11.0637 6.68861 8.99139
106 Ar 11.1986 11.0956 0.148679
107 Ar 10.8387 11.267 4.67681
108 Ar 11.1704 11.1835 8.86567
ITEM: TIMESTEP
44070
ITEM: NUMBER OF ATOMS
108
ITEM: BOX BOUNDS pp pp pp
0.0000000000000000e+00 1.3349999400000000e+01
0.0000000000000000e+00 1.3349999400000000e+01
0.0000000000000000e+00 1.3349999400000000e+01
ITEM: ATOMS id element xu yu zu
1 Ar -0.0786186 -0.0346339 0.0181809
2 Ar 0.00866151 -0.0502535 4.41201
3 Ar 0.119442 -0.153217 8.69705
4 Ar 0.115951 4.38259 -0.0838977
5 Ar 0.0240898 4.27136 4.47903
6 Ar -0.0260003 4.4592 8.96624
7 Ar 0.0462619 8.9716 0.0640344
8 Ar -0.100054 8.90101 4.38562
9 Ar 0.00246749 8.82135 8.92719
10 Ar 4.58433 -0.0433112 0.141076
11 Ar 4.48896 0.0493372 4.38685
12 Ar 4.24263 -0.011855 8.81947
13 Ar 4.3383 4.54831 -0.115478
14 Ar 4.46757 4.60818 4.53826
15 Ar 4.57815 4.30772 8.93484
16 Ar 4.64451 8.71771 0.0816653
17 Ar 4.45205 8.71575 4.37916
18 Ar 4.5081 9.01903 8.85474
19 Ar 9.11129 0.0456107 0.0255102
20 Ar 8.87678 0.159029 4.39814
21 Ar 8.70782 0.0377739 8.81662
22 Ar 8.93085 4.42211 -0.0526196
23 Ar 8.98516 4.50724 4.41487
24 Ar 8.83837 4.52187 9.01297
25 Ar 9.04903 8.95321 -0.065221
26 Ar 8.74513 8.8292 4.81437
27 Ar 8.83818 9.07789 8.85259
28 Ar 0.0241795 2.15555 2.09264
29 Ar -0.117258 2.13675 6.76826
30 Ar 0.0890012 2.16177 11.0796
31 Ar -0.184465 6.67974 2.30129
32 Ar -0.0337841 6.46626 6.70589
33 Ar -0.203689 6.7875 11.1364
34 Ar 0.0959504 11.1083 2.37741
35 Ar -0.0420948 11.0825 6.4524
36 Ar 0.0522496 11.3207 11.3035
37 Ar 4.50507 2.35711 2.20266
38 Ar 4.48162 2.23445 6.61494
39 Ar 4.39635 2.23078 11.2236
40 Ar 4.45612 6.62709 2.32745
41 Ar 4.51001 6.53365 6.72145
42 Ar 4.46693 6.66511 11.0185
43 Ar 4.52107 10.9257 2.17703
44 Ar 4.4632 11.053 6.59641
45 Ar 4.46265 11.1497 11.2524
46 Ar 9.00331 2.41786 2.02457
47 Ar 8.69317 2.0623 6.59255
48 Ar 8.9258 2.30282 11.0339
49 Ar 8.93094 6.58294 2.23274
50 Ar 8.74514 6.4927 6.79065
51 Ar 8.85534 6.86685 11.1281
52 Ar 8.76855 11.2437 2.15215
53 Ar 8.73334 11.0943 6.68687
54 Ar 9.02074 11.0832 11.1083
55 Ar 2.14197 -0.0779096 2.35384
56 Ar 2.25526 -0.036464 6.62466
57 Ar 2.31529 -0.0472956 11.1357
58 Ar 2.20448 4.40834 2.21525
59 Ar 2.23659 4.30757 6.60382
60 Ar 2.23469 4.46656 10.9965
61 Ar 2.26676 8.90272 2.12762
62 Ar 2.09766 8.89574 6.62555
63 Ar 2.13091 8.90303 11.0503
64 Ar 6.89013 0.337771 2.25083
65 Ar 6.64503 0.0626085 6.42531
66 Ar 6.6889 -0.0289895 11.0994
67 Ar 6.71284 4.55397 2.24312
68 Ar 6.60759 4.42123 6.83163
69 Ar 6.69848 4.60286 11.2014
70 Ar 6.99002 8.89411 2.31804
71 Ar 6.48749 8.89147 6.74505
72 Ar 6.73626 9.04888 11.166
73 Ar 11.0891 0.0588851 2.37355
74 Ar 11.0012 0.07213 6.79904
75 Ar 10.9826 -0.0780623 11.0731
76 Ar 11.2057 4.46918 2.03041
77 Ar 10.9555 4.3024 6.80748
78 Ar 11.2157 4.43896 11.1173
79 Ar 11.0051 8.90449 2.42374
80 Ar 11.1951 8.89257 6.69338
81 Ar 11.221 9.05395 11.0534
82 Ar 2.2218 2.09232 -0.00755655
83 Ar 2.20386 2.19538 4.32221
84 Ar 2.2373 2.11921 8.69774
85 Ar 2.09922 6.72872 -0.127384
86 Ar 2.21753 6.79935 4.36522
87 Ar 2.40279 6.87614 8.85331
88 Ar 2.08895 11.1087 0.079132
89 Ar 2.34381 11.0823 4.39179
90 Ar 2.15593 10.8832 8.80835
91 Ar 6.71108 2.28045 -0.0252461
92 Ar 6.73244 2.56542 4.50014
93 Ar 6.50667 2.10067 8.96688
94 Ar 6.68673 6.65571 0.0253872
95 Ar 6.67018 6.65426 4.4379
96 Ar 6.73797 6.71436 9.07232
97 Ar 6.75139 11.0824 -0.0260779
98 Ar 6.74794 11.0657 4.34991
99 Ar 6.68108 11.2675 8.77229
100 Ar 11.1377 2.09399 -0.0324485
101 Ar 11.2628 2.30094 4.39034
102 Ar 11.1826 2.14519 9.0917
103 Ar 11.2495 6.66671 0.017702
104 Ar 11.1417 6.55047 4.53765
105 Ar 11.0489 6.69535 9.00462
106 Ar 11.1996 11.103 0.155619
107 Ar 10.8306 11.2615 4.6804
108 Ar 11.17 11.184 8.85771
ITEM: TIMESTEP
44080
ITEM: NUMBER OF ATOMS
108
ITEM: BOX BOUNDS pp pp pp
0.0000000000000000e+00 1.3349999400000000e+01
0.0000000000000000e+00 1.3349999400000000e+01
0.0000000000000000e+00 1.3349999400000000e+01
ITEM: ATOMS id element xu yu zu
1 Ar -0.103961 -0.0436337 0.0244331
2 Ar 0.0143986 -0.0410583 4.40229
3 Ar 0.126176 -0.158717 8.68858
4 Ar 0.120448 4.42011 -0.0885399
5 Ar 0.0339949 4.25647 4.45878
6 Ar -0.0113533 4.4601 8.98306
7 Ar 0.0402876 8.97313 0.0642952
8 Ar -0.0886679 8.89802 4.37566
9 Ar -0.0182256 8.82899 8.92412
10 Ar 4.57523 -0.0373877 0.125675
11 Ar 4.49522 0.0158474 4.38421
12 Ar 4.24956 -0.0144093 8.82513
13 Ar 4.33636 4.56368 -0.103177
14 Ar 4.46109 4.60871 4.54876
15 Ar 4.55132 4.32211 8.94059
16 Ar 4.64555 8.71499 0.074678
17 Ar 4.47119 8.70667 4.38852
18 Ar 4.49946 8.99591 8.8483
19 Ar 9.08405 0.0736948 0.0348979
20 Ar 8.86634 0.168443 4.41101
21 Ar 8.70026 0.0482266 8.81894
22 Ar 8.91985 4.42746 -0.0377369
23 Ar 8.99371 4.50024 4.41747
24 Ar 8.84656 4.539 9.01674
25 Ar 9.02954 8.95028 -0.0719179
26 Ar 8.7439 8.85384 4.79955
27 Ar 8.86003 9.0508 8.8442
28 Ar 0.0270925 2.14508 2.10297
29 Ar -0.0912551 2.16651 6.76669
30 Ar 0.0882941 2.16278 11.0784
31 Ar -0.173833 6.65215 2.28194
32 Ar -0.0196598 6.47264 6.69672
33 Ar -0.200187 6.78837 11.1385
34 Ar 0.0805927 11.1081 2.38528
35 Ar -0.0426986 11.0851 6.43767
36 Ar 0.0389497 11.3262 11.2952