ITEM: TIMESTEP
8000
ITEM: NUMBER OF ATOMS
108
ITEM: BOX BOUNDS pp pp pp
0.0000000000000000e+00 1.3349999400000000e+01
0.0000000000000000e+00 1.3349999400000000e+01
0.0000000000000000e+00 1.3349999400000000e+01
ITEM: ATOMS id element xu yu zu
1 Ar -0.0463964 0.061451 -0.164261
2 Ar 0.233688 0.0211469 4.50881
3 Ar -0.132971 -0.0341884 9.09824
4 Ar -0.053676 4.50192 -0.0926258
5 Ar 0.00426914 4.12581 4.41329
6 Ar -0.0640386 4.29458 8.61486
7 Ar -0.000240022 8.91987 -0.0832274
8 Ar -0.0903137 8.98167 4.48625
9 Ar -0.0694209 9.13327 8.95076
10 Ar 4.39429 0.0835843 0.148734
11 Ar 4.53006 0.0893922 4.2755
12 Ar 4.42457 0.022888 8.82212
13 Ar 4.38865 4.23184 -0.0952597
14 Ar 4.52212 4.69775 4.44735
15 Ar 4.44368 4.59041 9.01664
16 Ar 4.41034 8.72174 -0.0975835
17 Ar 4.53081 8.77713 4.38279
18 Ar 4.38662 8.98606 8.84171
19 Ar 9.07787 -0.0266212 0.00194806
20 Ar 8.96454 -0.08267 4.5321
21 Ar 8.73355 0.154977 8.69594
22 Ar 8.90769 4.30886 -0.125109
23 Ar 8.7735 4.43716 4.42267
24 Ar 8.67906 4.44471 8.90639
25 Ar 9.03792 9.02753 -0.0446393
26 Ar 9.07607 8.88774 4.30553
27 Ar 8.9593 8.97333 9.00386
28 Ar 0.177318 2.18561 2.41533
29 Ar -0.0382479 2.0458 6.7769
30 Ar -0.149646 2.22479 11.1646
31 Ar -0.278332 6.64261 2.38473
32 Ar 0.155181 6.65608 6.5886
33 Ar 0.0622949 6.73448 11.0566
34 Ar 0.0897371 11.06 2.23041
35 Ar -0.0955705 11.2696 6.58922
36 Ar 0.042802 11.1539 11.2113
37 Ar 4.58929 2.20952 2.16942
38 Ar 4.53791 2.19589 6.72504
39 Ar 4.62207 2.10636 11.2005
40 Ar 4.4559 6.62254 2.06793
41 Ar 4.23491 6.83389 6.51155
42 Ar 4.48198 6.44541 11.2173
43 Ar 4.53972 11.0617 2.114
44 Ar 4.41968 11.0853 6.7101
45 Ar 4.32396 11.1355 11.2471
46 Ar 8.90984 2.21241 2.38741
47 Ar 8.80935 2.2559 6.55971
48 Ar 8.98713 2.35365 10.9834
49 Ar 9.06008 6.80344 2.30153
50 Ar 8.82106 6.60174 6.9266
51 Ar 8.73794 6.73173 11.1508
52 Ar 8.93998 11.2706 2.27089
53 Ar 8.84087 10.9162 6.49351
54 Ar 8.91722 11.1441 11.114
55 Ar 2.28135 0.00257782 2.29338
56 Ar 2.33049 0.033825 6.77133
57 Ar 2.11474 0.024425 11.118
58 Ar 2.25992 4.32956 2.37976
59 Ar 2.27026 4.61812 6.67778
60 Ar 2.1774 4.36503 11.3506
61 Ar 2.38126 8.86265 2.21169
62 Ar 2.10728 8.85143 6.64479
63 Ar 2.3636 8.86242 11.1609
64 Ar 6.77993 0.0103024 2.30052
65 Ar 6.54068 -0.0855216 6.48289
66 Ar 6.87966 -0.0695191 11.1208
67 Ar 6.76837 4.57528 2.08932
68 Ar 6.47669 4.64062 6.62964
69 Ar 6.70801 4.22982 11.1828
70 Ar 6.6778 8.95755 2.12355
71 Ar 6.60077 9.02383 6.81891
72 Ar 6.66135 8.99797 11.1986
73 Ar 11.2439 0.0118004 2.3081
74 Ar 11.0056 0.00750123 6.72298
75 Ar 10.9005 0.0144928 10.9417
76 Ar 11.1735 4.35596 2.32569
77 Ar 10.9742 4.34735 6.51788
78 Ar 10.8682 4.58883 11.0815
79 Ar 11.2255 8.89923 2.27927
80 Ar 11.0662 8.90171 6.70457
81 Ar 11.2215 8.81468 11.2342
82 Ar 2.00052 2.16951 0.112192
83 Ar 2.46036 2.23037 4.47102
84 Ar 2.2592 2.28039 9.00721
85 Ar 2.38886 6.6402 0.139905
86 Ar 2.25401 6.6845 4.31975
87 Ar 2.31726 6.72114 8.87898
88 Ar 2.23519 11.1087 -0.156295
89 Ar 2.40868 11.0537 4.42519
90 Ar 2.07124 11.0889 8.99416
91 Ar 6.79564 2.19691 -0.0170752
92 Ar 6.73364 2.47376 4.37393
93 Ar 6.62355 2.2286 8.84961
94 Ar 6.6858 6.66501 -0.0160078
95 Ar 6.75348 6.85102 4.47349
96 Ar 6.54865 6.62832 8.87223
97 Ar 6.65008 11.143 -0.183315
98 Ar 6.61907 10.9433 4.45879
99 Ar 6.6238 11.1372 8.85244
100 Ar 11.1362 2.16657 0.155491
101 Ar 11.026 2.07099 4.66948
102 Ar 11.0163 2.23844 8.79807
103 Ar 11.0529 6.82484 -0.000232985
104 Ar 11.0272 6.62595 4.69142
105 Ar 11.2809 6.76288 8.85874
106 Ar 11.1152 11.2163 -0.0294903
107 Ar 11.2816 11.0969 4.45754
108 Ar 11.1101 11.0405 8.88033
ITEM: TIMESTEP
8010
ITEM: NUMBER OF ATOMS
108
ITEM: BOX BOUNDS pp pp pp
0.0000000000000000e+00 1.3349999400000000e+01
0.0000000000000000e+00 1.3349999400000000e+01
0.0000000000000000e+00 1.3349999400000000e+01
ITEM: ATOMS id element xu yu zu
1 Ar -0.0531764 0.0635672 -0.153663
2 Ar 0.22887 0.0388479 4.49706
3 Ar -0.130374 -0.0517952 9.12078
4 Ar -0.0549892 4.51196 -0.102534
5 Ar 0.0289699 4.14426 4.39385
6 Ar -0.064227 4.28612 8.61168
7 Ar 0.0152891 8.90922 -0.0450994
8 Ar -0.0762105 8.97001 4.47604
9 Ar -0.0686148 9.12823 8.95596
10 Ar 4.38509 0.0940134 0.151429
11 Ar 4.54232 0.0869124 4.28301
12 Ar 4.41109 0.0428004 8.82048
13 Ar 4.39122 4.20845 -0.114072
14 Ar 4.52611 4.68465 4.44133
15 Ar 4.43718 4.61594 9.01325
16 Ar 4.40362 8.73746 -0.0853623
17 Ar 4.5217 8.77229 4.3802
18 Ar 4.3795 8.98357 8.82876
19 Ar 9.07346 -0.0428566 0.00841967
20 Ar 8.98412 -0.0674636 4.54059
21 Ar 8.73968 0.162554 8.6846
22 Ar 8.90461 4.30295 -0.136471
23 Ar 8.74614 4.44866 4.42522
24 Ar 8.66964 4.45439 8.90734
25 Ar 9.04591 9.02023 -0.0689839
26 Ar 9.07831 8.8954 4.31712
27 Ar 8.94045 8.96275 8.98513
28 Ar 0.179325 2.19296 2.4105
29 Ar -0.0430731 2.06004 6.7608
30 Ar -0.149363 2.24025 11.1874
31 Ar -0.276757 6.65066 2.3772
32 Ar 0.142128 6.64838 6.57952
33 Ar 0.0540925 6.73698 11.0637
34 Ar 0.102832 11.067 2.22388
35 Ar -0.0823786 11.2864 6.59584
36 Ar 0.0612885 11.142 11.1999
37 Ar 4.57027 2.19609 2.16326
38 Ar 4.5413 2.21908 6.71796
39 Ar 4.61875 2.09726 11.1932
40 Ar 4.46622 6.62359 2.0871
41 Ar 4.24874 6.82985 6.52619
42 Ar 4.47699 6.43598 11.2004
43 Ar 4.54376 11.0547 2.10104
44 Ar 4.41985 11.0835 6.71606
45 Ar 4.34231 11.1249 11.249
46 Ar 8.89379 2.22617 2.39294
47 Ar 8.79369 2.25989 6.5541
48 Ar 8.99276 2.35496 11.0018
49 Ar 9.05722 6.80531 2.28469
50 Ar 8.83546 6.6327 6.93655
51 Ar 8.74494 6.71677 11.1397
52 Ar 8.93517 11.2756 2.29052
53 Ar 8.85924 10.925 6.48499
54 Ar 8.91517 11.1482 11.1105
55 Ar 2.28144 -0.00643891 2.28103
56 Ar 2.33248 0.0518005 6.78741
57 Ar 2.1095 0.0352202 11.105
58 Ar 2.27797 4.33779 2.37836
59 Ar 2.28384 4.59633 6.67365
60 Ar 2.16704 4.34378 11.37
61 Ar 2.37308 8.86503 2.24008
62 Ar 2.10816 8.85112 6.63801
63 Ar 2.36355 8.83373 11.1768
64 Ar 6.78361 0.0142948 2.32489
65 Ar 6.53219 -0.0937613 6.48151
66 Ar 6.87921 -0.0628724 11.1015
67 Ar 6.7618 4.58025 2.08909
68 Ar 6.44267 4.63805 6.64066
69 Ar 6.71519 4.25909 11.1856
70 Ar 6.67266 8.96051 2.11617
71 Ar 6.58845 9.03988 6.81068
72 Ar 6.67191 8.99194 11.2009
73 Ar 11.26 0.000842705 2.32194
74 Ar 11.0148 0.0123575 6.74169
75 Ar 10.8995 0.0106387 10.9285
76 Ar 11.1671 4.36152 2.32913
77 Ar 10.9443 4.34596 6.51838
78 Ar 10.8507 4.56646 11.0772
79 Ar 11.2225 8.89309 2.25622
80 Ar 11.0415 8.89902 6.71588
81 Ar 11.214 8.80379 11.2412
82 Ar 1.98715 2.17437 0.13407
83 Ar 2.45042 2.23074 4.46699
84 Ar 2.28304 2.2934 8.97888
85 Ar 2.37166 6.6393 0.135692
86 Ar 2.26566 6.67226 4.29418
87 Ar 2.34367 6.73869 8.87996
88 Ar 2.25751 11.1109 -0.160878
89 Ar 2.41862 11.0687 4.40312
90 Ar 2.05217 11.0801 9.00211
91 Ar 6.79895 2.2024 -0.00432247
92 Ar 6.71567 2.47423 4.38892
93 Ar 6.61404 2.20814 8.85265
94 Ar 6.65001 6.66058 -0.0201894
95 Ar 6.7752 6.84903 4.47837
96 Ar 6.53648 6.64959 8.8716
97 Ar 6.66402 11.1489 -0.174174
98 Ar 6.63138 10.9349 4.4567
99 Ar 6.61646 11.1274 8.85362
100 Ar 11.1631 2.14836 0.148348
101 Ar 11.0165 2.08136 4.66372
102 Ar 11.0247 2.20609 8.79446
103 Ar 11.0287 6.82121 0.00936591
104 Ar 11.0362 6.62288 4.7122
105 Ar 11.2887 6.74427 8.85439
106 Ar 11.1144 11.2102 -0.0221616
107 Ar 11.3015 11.1067 4.47031
108 Ar 11.1357 11.0187 8.86557
ITEM: TIMESTEP
8020
ITEM: NUMBER OF ATOMS
108
ITEM: BOX BOUNDS pp pp pp
0.0000000000000000e+00 1.3349999400000000e+01
0.0000000000000000e+00 1.3349999400000000e+01
0.0000000000000000e+00 1.3349999400000000e+01
ITEM: ATOMS id element xu yu zu
1 Ar -0.0605847 0.0631202 -0.140085
2 Ar 0.2225 0.0557815 4.48531
3 Ar -0.12655 -0.0681588 9.13962
4 Ar -0.0583508 4.52304 -0.10936
5 Ar 0.0529935 4.16722 4.37925
6 Ar -0.0643054 4.28064 8.61264
7 Ar 0.0323941 8.89759 -0.00505351
8 Ar -0.0597218 8.95638 4.46614
9 Ar -0.0662257 9.11839 8.9598
10 Ar 4.37722 0.102781 0.151172
11 Ar 4.55399 0.0823124 4.29254
12 Ar 4.39895 0.0607016 8.82225
13 Ar 4.39507 4.18657 -0.129215
14 Ar 4.52988 4.66889 4.43369
15 Ar 4.42973 4.63649 9.00787
16 Ar 4.39919 8.75597 -0.0721134
17 Ar 4.51181 8.76968 4.37734
18 Ar 4.37262 8.98017 8.81855
19 Ar 9.06626 -0.0569743 0.0155656
20 Ar 9.00143 -0.0527901 4.54838
21 Ar 8.74617 0.1663 8.67409
22 Ar 8.90275 4.29987 -0.14299
23 Ar 8.72135 4.46373 4.42802
24 Ar 8.66237 4.46399 8.90675
25 Ar 9.05067 9.01277 -0.0910327
26 Ar 9.07831 8.90388 4.33041
27 Ar 8.92043 8.95097 8.96649
28 Ar 0.177461 2.19821 2.40252
29 Ar -0.0459919 2.07404 6.74342
30 Ar -0.149703 2.2575 11.2075
31 Ar -0.270978 6.65775 2.36863
32 Ar 0.126396 6.64051 6.57093
33 Ar 0.0468699 6.73735 11.0708
34 Ar 0.116323 11.0753 2.21626
35 Ar -0.0663623 11.302 6.60483
36 Ar 0.0767376 11.1291 11.189
37 Ar 4.55103 2.18545 2.15813
38 Ar 4.54345 2.2441 6.70955
39 Ar 4.61266 2.087 11.1842
40 Ar 4.47871 6.624 2.10843
41 Ar 4.26606 6.82528 6.54357
42 Ar 4.472 6.43018 11.184
43 Ar 4.54699 11.0489 2.08833
44 Ar 4.41796 11.0826 6.72057
45 Ar 4.36323 11.1162 11.2472
46 Ar 8.8792 2.2392 2.39581
47 Ar 8.7755 2.2643 6.55054
48 Ar 8.997 2.35161 11.0212
49 Ar 9.05244 6.80422 2.26597
50 Ar 8.84998 6.66534 6.94359
51 Ar 8.7526 6.70219 11.1276
52 Ar 8.93069 11.2778 2.3092
53 Ar 8.87834 10.9368 6.47935
54 Ar 8.91405 11.1513 11.1056
55 Ar 2.28075 -0.0169748 2.2674
56 Ar 2.3327 0.0686351 6.80193
57 Ar 2.10755 0.047423 11.0923
58 Ar 2.29608 4.34803 2.37357
59 Ar 2.29775 4.57077 6.66885
60 Ar 2.1564 4.32322 11.3843
61 Ar 2.36199 8.86836 2.26733
62 Ar 2.109 8.85415 6.63125
63 Ar 2.36115 8.80399 11.1911
64 Ar 6.78704 0.0177072 2.34759
65 Ar 6.52587 -0.101163 6.48115
66 Ar 6.87634 -0.0542558 11.0822
67 Ar 6.75468 4.5844 2.08966
68 Ar 6.41091 4.63405 6.65268
69 Ar 6.72089 4.29123 11.1873
70 Ar 6.66936 8.96224 2.10812
71 Ar 6.57769 9.05138 6.80071
72 Ar 6.68138 8.98397 11.2007
73 Ar 11.2763 -0.0100094 2.33587
74 Ar 11.0252 0.0145308 6.76083
75 Ar 10.8997 0.00670939 10.9172
76 Ar 11.159 4.36695 2.33175
77 Ar 10.9164 4.34592 6.52222
78 Ar 10.8392 4.54494 11.0718
79 Ar 11.2187 8.88975 2.23194
80 Ar 11.0188 8.89575 6.72665
81 Ar 11.2052 8.79525 11.2449
82 Ar 1.97707 2.17963 0.154243
83 Ar 2.44029 2.23133 4.46529
84 Ar 2.3063 2.30681 8.95059
85 Ar 2.34924 6.63679 0.130139
86 Ar 2.27421 6.66029 4.26868
87 Ar 2.3668 6.75565 8.88277
88 Ar 2.27856 11.1138 -0.160512
89 Ar 2.4273 11.0844 4.38209
90 Ar 2.03672 11.0729 9.00785
91 Ar 6.80249 2.20533 0.00964384
92 Ar 6.69402 2.47109 4.40472
93 Ar 6.60425 2.18847 8.85567
94 Ar 6.61616 6.65639 -0.0246396
95 Ar 6.79756 6.84647 4.48301
96 Ar 6.52459 6.67388 8.87267
97 Ar 6.67837 11.1558 -0.161136
98 Ar 6.64366 10.9282 4.45321
99 Ar 6.61018 11.1193 8.85678
100 Ar 11.1895 2.132 0.140356
101 Ar 11.0099 2.0927 4.6537
102 Ar 11.0335 2.17577 8.79154
103 Ar 11.0059 6.81311 0.0190508
104 Ar 11.0461 6.61984 4.73077
105 Ar 11.2952 6.72402 8.85006
106 Ar 11.1158 11.2031 -0.0142417
107 Ar 11.3184 11.1185 4.48191
108 Ar 11.1589 11 8.85153
ITEM: TIMESTEP
8030
ITEM: NUMBER OF ATOMS
108
ITEM: BOX BOUNDS pp pp pp
0.0000000000000000e+00 1.3349999400000000e+01
0.0000000000000000e+00 1.3349999400000000e+01
0.0000000000000000e+00 1.3349999400000000e+01
ITEM: ATOMS id element xu yu zu
1 Ar -0.0681586 0.0597211 -0.124075
2 Ar 0.214825 0.071684 4.47386
3 Ar -0.121503 -0.0826971 9.15445
4 Ar -0.0640279 4.53519 -0.112767
5 Ar 0.0759026 4.19446 4.3695
6 Ar -0.0642315 4.27811 8.61767
7 Ar 0.0507064 8.88519 0.0360368
8 Ar -0.0414165 8.94125 4.45667
9 Ar -0.0622055 9.10331 8.96214
10 Ar 4.37093 0.1097 0.147747
11 Ar 4.56452 0.0757284 4.30386
12 Ar 4.38839 0.0761114 8.82728
13 Ar 4.40013 4.16658 -0.140525
14 Ar 4.53342 4.65086 4.42459
15 Ar 4.42152 4.65151 9.00058
16 Ar 4.39689 8.77662 -0.0579422
17 Ar 4.50154 8.76922 4.3745
18 Ar 4.36605 8.97623 8.81134
19 Ar 9.05656 -0.0687267 0.0233379
20 Ar 9.01629 -0.0388245 4.55544
21 Ar 8.75278 0.166071 8.66452
22 Ar 8.90215 4.2997 -0.1443
23 Ar 8.69929 4.48205 4.43115
24 Ar 8.65706 4.47317 8.90444
25 Ar 9.05183 9.00533 -0.110474
26 Ar 9.07642 8.91275 4.34481
27 Ar 8.89954 8.93853 8.94848
28 Ar 0.171649 2.20165 2.39179
29 Ar -0.0470477 2.08769 6.72493
30 Ar -0.15057 2.27603 11.2245
31 Ar -0.261267 6.66366 2.3591
32 Ar 0.108846 6.63242 6.56303
33 Ar 0.0406157 6.73556 11.0777
34 Ar 0.129934 11.0846 2.20776
35 Ar -0.0474954 11.3163 6.61582
36 Ar 0.0889293 11.1151 11.1795
37 Ar 4.53187 2.1777 2.15429
38 Ar 4.54433 2.27028 6.6999
39 Ar 4.60413 2.07594 11.1738
40 Ar 4.49283 6.62398 2.13112
41 Ar 4.28629 6.82025 6.56285
42 Ar 4.46682 6.42827 11.1689
43 Ar 4.54945 11.0444 2.07611
44 Ar 4.41375 11.0828 6.72352
45 Ar 4.38634 11.1097 11.2417
46 Ar 8.86626 2.25142 2.39604
47 Ar 8.755 2.26912 6.54909
48 Ar 8.99953 2.34345 11.0412
49 Ar 9.04563 6.80046 2.24601
50 Ar 8.86397 6.69888 6.94769
51 Ar 8.76074 6.68826 11.1148
52 Ar 8.92676 11.2773 2.32676
53 Ar 8.89774 10.9518 6.47678
54 Ar 8.91392 11.1533 11.0989
55 Ar 2.27933 -0.02879 2.25283
56 Ar 2.33099 0.084122 6.81447
57 Ar 2.10888 0.0609446 11.0802
58 Ar 2.31409 4.3599 2.36519
59 Ar 2.31164 4.54236 6.66341
60 Ar 2.14582 4.30359 11.3933
61 Ar 2.34828 8.87247 2.29285
62 Ar 2.10975 8.86023 6.62439
63 Ar 2.35659 8.77386 11.2036
64 Ar 6.79018 0.0205744 2.36839
65 Ar 6.52186 -0.10769 6.48197
66 Ar 6.87118 -0.0439452 11.0631
67 Ar 6.74705 4.58758 2.09094
68 Ar 6.38226 4.62901 6.66577
69 Ar 6.72489 4.32534 11.1879
70 Ar 6.6681 8.96259 2.09953
71 Ar 6.56875 9.05835 6.78899
72 Ar 6.68959 8.9742 11.1983
73 Ar 11.2924 -0.0205442 2.34958
74 Ar 11.0368 0.0141094 6.77979
75 Ar 10.9012 0.00250861 10.9081
76 Ar 11.1493 4.3722 2.33355
77 Ar 10.8909 4.34701 6.52947
78 Ar 10.8342 4.5246 11.0651
79 Ar 11.2139 8.88945 2.20723
80 Ar 10.9989 8.89193 6.7366
81 Ar 11.1956 8.78909 11.2453
82 Ar 1.97038 2.18515 0.17236
83 Ar 2.43018 2.23191 4.46574
84 Ar 2.32851 2.3207 8.92281
85 Ar 2.32268 6.63279 0.123784
86 Ar 2.27973 6.64863 4.24425
87 Ar 2.38585 6.77168 8.88709
88 Ar 2.29799 11.1172 -0.155577
89 Ar 2.43469 11.1005 4.3626
90 Ar 2.02554 11.0676 9.01128
91 Ar 6.80608 2.20563 0.0244216
92 Ar 6.66913 2.46448 4.42092
93 Ar 6.59445 2.17015 8.85873
94 Ar 6.58467 6.65248 -0.0294807
95 Ar 6.82 6.84361 4.48746
96 Ar 6.51333 6.70088 8.87522
97 Ar 6.69305 11.1639 -0.144624
98 Ar 6.65563 10.9234 4.44835
99 Ar 6.60499 11.1132 8.86187
100 Ar 11.2144 2.11774 0.131985
101 Ar 11.0063 2.10512 4.63974
102 Ar 11.0426 2.14817 8.78947
103 Ar 10.985 6.80043 0.0283948
104 Ar 11.0566 6.617 4.74652
105 Ar 11.3005 6.70235 8.84592
106 Ar 11.1195 11.195 -0.00593662
107 Ar 11.3325 11.1316 4.49221
108 Ar 11.179 10.9846 8.8386
ITEM: TIMESTEP
8040
ITEM: NUMBER OF ATOMS
108
ITEM: BOX BOUNDS pp pp pp
0.0000000000000000e+00 1.3349999400000000e+01
0.0000000000000000e+00 1.3349999400000000e+01
0.0000000000000000e+00 1.3349999400000000e+01
ITEM: ATOMS id element xu yu zu
1 Ar -0.0753901 0.0531201 -0.106243
2 Ar 0.206111 0.086306 4.46303
3 Ar -0.115253 -0.0949235 9.16506
4 Ar -0.0721771 4.54833 -0.112514
5 Ar 0.0973388 4.22553 4.36434
6 Ar -0.0639245 4.27838 8.62662
7 Ar 0.0698519 8.8722 0.0772745
8 Ar -0.0219195 8.92514 4.44772
9 Ar -0.0565456 9.08279 8.96289
10 Ar 4.36646 0.114655 0.141032
11 Ar 4.57341 0.0673225 4.31671
12 Ar 4.37958 0.0886054 8.83529
13 Ar 4.40627 4.14885 -0.148009
14 Ar 4.5367 4.63101 4.41424
15 Ar 4.41281 4.66065 8.99158
16 Ar 4.39647 8.79873 -0.0429999
17 Ar 4.49127 8.77076 4.37196
18 Ar 4.35984 8.97219 8.8073
19 Ar 9.0447 -0.0779661 0.0316722
20 Ar 9.02858 -0.0256803 4.56177
21 Ar 8.75928 0.161826 8.65603
22 Ar 8.90286 4.30242 -0.140285
23 Ar 8.68004 4.5031 4.43467
24 Ar 8.65354 4.48166 8.90032
25 Ar 9.04916 8.99807 -0.127082
26 Ar 9.07303 8.92159 4.35973
27 Ar 8.87809 8.92597 8.93162
28 Ar 0.161914 2.20369 2.37883
29 Ar -0.0463451 2.10103 6.70553
30 Ar -0.151854 2.29526 11.2377
31 Ar -0.248005 6.66821 2.34871
32 Ar 0.0903633 6.62408 6.55607
33 Ar 0.0352428 6.73164 11.0843
34 Ar 0.143363 11.0948 2.19862
35 Ar -0.0258479 11.329 6.62837
36 Ar 0.0977687 11.1 11.1724
37 Ar 4.51303 2.17279 2.15198
38 Ar 4.5439 2.29683 6.68917
39 Ar 4.59351 2.0645 11.1622
40 Ar 4.50804 6.6238 2.15442
41 Ar 4.30875 6.81489 6.58313
42 Ar 4.46126 6.43037 11.1556
43 Ar 4.55122 11.0415 2.06469
44 Ar 4.40709 11.0843 6.72488
45 Ar 4.41118 11.1051 11.2325
46 Ar 8.8551 2.26275 2.39379
47 Ar 8.73256 2.27433 6.54972
48 Ar 9.00005 2.33052 11.0612
49 Ar 9.03669 6.79436 2.22543
50 Ar 8.87683 6.73248 6.94882
51 Ar 8.76929 6.67527 11.1015
52 Ar 8.92363 11.2741 2.34306
53 Ar 8.91697 10.9698 6.47739
54 Ar 8.91478 11.1542 11.0905
55 Ar 2.27726 -0.0415644 2.23766
56 Ar 2.32731 0.098093 6.82471
57 Ar 2.11332 0.0756352 11.0692
58 Ar 2.33178 4.37296 2.35312
59 Ar 2.32514 4.51209 6.65737
60 Ar 2.13561 4.28513 11.3968
61 Ar 2.33232 8.87723 2.31609
62 Ar 2.11041 8.86894 6.61734
63 Ar 2.35008 8.74405 11.2143
64 Ar 6.79298 0.0229388 2.38711
65 Ar 6.52021 -0.113328 6.48413
66 Ar 6.86392 -0.0322889 11.0448
67 Ar 6.73896 4.58963 2.09288
68 Ar 6.3575 4.62334 6.6799
69 Ar 6.72709 4.36047 11.1872
70 Ar 6.66905 8.96146 2.09059
71 Ar 6.56182 9.06099 6.77555
72 Ar 6.69641 8.96287 11.194
73 Ar 11.3079 -0.0305829 2.36275
74 Ar 11.0497 0.0112418 6.79793
75 Ar 10.9037 -0.00214689 10.9014
76 Ar 11.1382 4.37726 2.33456
77 Ar 10.8679 4.34896 6.54011
78 Ar 10.8356 4.50562 11.0572
79 Ar 11.2083 8.89229 2.18284
80 Ar 10.9824 8.88765 6.74549
81 Ar 11.1857 8.78527 11.2426
82 Ar 1.96715 2.19076 0.18808
83 Ar 2.42025 2.23226 4.46805
84 Ar 2.34919 2.3351 8.89601
85 Ar 2.29313 6.62745 0.117137
86 Ar 2.28236 6.63731 4.22187
87 Ar 2.40014 6.78641 8.89255
88 Ar 2.31552 11.1212 -0.146647
89 Ar 2.44073 11.1172 4.34511
90 Ar 2.01913 11.0638 9.01238
91 Ar 6.80953 2.20335 0.0395911
92 Ar 6.64161 2.4546 4.43708
93 Ar 6.58488 2.15369 8.86187
94 Ar 6.55584 6.64893 -0.0347797
95 Ar 6.84194 6.84075 4.49178
96 Ar 6.50304 6.73014 8.87902
97 Ar 6.70799 11.1731 -0.125158
98 Ar 6.66704 10.9204 4.44224
99 Ar 6.60093 11.1091 8.86872
100 Ar 11.2372 2.10579 0.123659
101 Ar 11.0058 2.11869 4.62233
102 Ar 11.052 2.12397 8.78841
103 Ar 10.9665 6.78324 0.0369378
104 Ar 11.0675 6.61449 4.75883
105 Ar 11.3045 6.67951 8.84211
106 Ar 11.1253 11.1861 0.00254583
107 Ar 11.3439 11.1456 4.50118
108 Ar 11.1956 10.9726 8.82712
ITEM: TIMESTEP
8050
ITEM: NUMBER OF ATOMS
108
ITEM: BOX BOUNDS pp pp pp
0.0000000000000000e+00 1.3349999400000000e+01
0.0000000000000000e+00 1.3349999400000000e+01
0.0000000000000000e+00 1.3349999400000000e+01
ITEM: ATOMS id element xu yu zu
1 Ar -0.0817654 0.0432212 -0.0872291
2 Ar 0.19664 0.0994207 4.45307
3 Ar -0.107835 -0.104462 9.17141
4 Ar -0.0828304 4.56231 -0.108474
5 Ar 0.117015 4.2599 4.36336
6 Ar -0.0632665 4.28125 8.63924
7 Ar 0.0894545 8.85886 0.117764
8 Ar -0.00188879 8.90857 4.43936
9 Ar -0.0492862 9.05686 8.96196
10 Ar 4.364 0.117608 0.131011
11 Ar 4.58018 0.0572725 4.33081
12 Ar 4.37264 0.0978193 8.84586
13 Ar 4.41334 4.13365 -0.151832
14 Ar 4.53967 4.60981 4.40289
15 Ar 4.40382 4.66386 8.98119
16 Ar 4.39761 8.82161 -0.0274988
17 Ar 4.48132 8.77417 4.36995
18 Ar 4.3541 8.96849 8.80649
19 Ar 9.03114 -0.0846399 0.0404918
20 Ar 9.03828 -0.0134032 4.56736
21 Ar 8.76548 0.153623 8.64871
22 Ar 8.90484 4.30792 -0.131093
23 Ar 8.66365 4.52615 4.43864
24 Ar 8.65161 4.48923 8.89438
25 Ar 9.04257 8.99107 -0.140718
26 Ar 9.06851 8.93004 4.37468
27 Ar 8.85642 8.91389 8.9164
28 Ar 0.148389 2.20486 2.36428
29 Ar -0.0440464 2.11415 6.68547
30 Ar -0.153437 2.31456 11.2471
31 Ar -0.231682 6.67129 2.33756
32 Ar 0.0718104 6.61551 6.55031
33 Ar 0.0305998 6.72566 11.0907
34 Ar 0.15629 11.1056 2.18913
35 Ar -0.00159212 11.3401 6.64199
36 Ar 0.103286 11.0837 11.1682
37 Ar 4.49475 2.17053 2.15139
38 Ar 4.54214 2.32287 6.67763
39 Ar 4.58112 2.0532 11.1496
40 Ar 4.52386 6.62378 2.17764
41 Ar 4.3327 6.80936 6.60356
42 Ar 4.45514 6.43643 11.1448
43 Ar 4.55238 11.0404 2.05439
44 Ar 4.39802 11.0872 6.72466
45 Ar 4.43723 11.1024 11.22
46 Ar 8.84577 2.27315 2.38931
47 Ar 8.7086 2.27992 6.55231
48 Ar 8.99837 2.31314 11.081
49 Ar 9.02556 6.78632 2.20483
50 Ar 8.88802 6.76528 6.94694
51 Ar 8.77824 6.66345 11.0878
52 Ar 8.92152 11.2682 2.35796
53 Ar 8.93562 10.9908 6.48124
54 Ar 8.91655 11.154 11.0803
55 Ar 2.27463 -0.0549002 2.2222
56 Ar 2.32169 0.110425 6.83242
57 Ar 2.1206 0.0912858 11.0596
58 Ar 2.34886 4.38673 2.33733
59 Ar 2.33788 4.48102 6.65076
60 Ar 2.12612 4.26809 11.3946
61 Ar 2.31456 8.88246 2.33655
62 Ar 2.11101 8.87982 6.61009
63 Ar 2.34189 8.7153 11.2235
64 Ar 6.79539 0.0248467 2.40363
65 Ar 6.52094 -0.118084 6.48779
66 Ar 6.85478 -0.0196892 11.0277
67 Ar 6.73049 4.59041 2.0954
68 Ar 6.33734 4.6174 6.695
69 Ar 6.72747 4.39572 11.1853
70 Ar 6.67229 8.95878 2.0815
71 Ar 6.55703 9.05964 6.76049
72 Ar 6.70174 8.95026 11.1881
73 Ar 11.3222 -0.039978 2.37505
74 Ar 11.0638 0.00613415 6.8146
75 Ar 10.9073 -0.00741741 10.8975
76 Ar 11.126 4.38217 2.33486
77 Ar 10.8476 4.35151 6.554
78 Ar 10.8435 4.48808 11.0482
79 Ar 11.2015 8.89816 2.15949
80 Ar 10.97 8.88304 6.75311
81 Ar 11.1758 8.78363 11.2368
82 Ar 1.96732 2.19634 0.201089
83 Ar 2.41057 2.23219 4.47182
84 Ar 2.36792 2.34995 8.87063
85 Ar 2.26173 6.6209 0.110647
86 Ar 2.28235 6.62638 4.20243
87 Ar 2.40909 6.7995 8.8987
88 Ar 2.33098 11.1256 -0.134444
89 Ar 2.44538 11.1343 4.33
90 Ar 2.01779 11.0616 9.01124
91 Ar 6.81266 2.19859 0.0547343
92 Ar 6.61226 2.44178 4.45276
93 Ar 6.57582 2.13951 8.86505
94 Ar 6.52992 6.64581 -0.0405434
95 Ar 6.86275 6.8382 4.49599
96 Ar 6.494 6.76111 8.88387
97 Ar 6.72308 11.1832 -0.103335
98 Ar 6.67765 10.9194 4.43503
99 Ar 6.598 11.107 8.87703
100 Ar 11.257 2.09631 0.115741
101 Ar 11.0082 2.13351 4.60201
102 Ar 11.0615 2.10372 8.78848
103 Ar 10.9507 6.7618 0.0442178
104 Ar 11.0783 6.61243 4.76718
105 Ar 11.3072 6.6558 8.83879
106 Ar 11.1331 11.1764 0.0109929
107 Ar 11.353 11.1598 4.50887
108 Ar 11.2086 10.9639 8.81739
ITEM: TIMESTEP
8060
ITEM: NUMBER OF ATOMS
108
ITEM: BOX BOUNDS pp pp pp
0.0000000000000000e+00 1.3349999400000000e+01
0.0000000000000000e+00 1.3349999400000000e+01
0.0000000000000000e+00 1.3349999400000000e+01
ITEM: ATOMS id element xu yu zu
1 Ar -0.0868074 0.0300915 -0.0676829
2 Ar 0.186703 0.110832 4.44422
3 Ar -0.0992802 -0.111054 9.17358
4 Ar -0.0958902 4.57684 -0.100646
5 Ar 0.134703 4.29685 4.36598
6 Ar -0.0621058 4.28643 8.65523
7 Ar 0.109132 8.84542 0.156632
8 Ar 0.0180054 8.89207 4.43165
9 Ar -0.04052 9.02581 8.95935
10 Ar 4.36369 0.118598 0.117786
11 Ar 4.58444 0.0457641 4.34585
12 Ar 4.36756 0.103456 8.85845
13 Ar 4.42119 4.12122 -0.152291
14 Ar 4.54228 4.5878 4.39084
15 Ar 4.3948 4.66129 8.96986
16 Ar 4.40001 8.8446 -0.0117141
17 Ar 4.47197 8.77928 4.3687
18 Ar 4.34891 8.96557 8.80886
19 Ar 9.01636 -0.0887799 0.049711
20 Ar 9.04542 -0.00196918 4.57218
21 Ar 8.77123 0.141628 8.64267
22 Ar 8.90805 4.31598 -0.117133
23 Ar 8.65014 4.55034 4.44313
24 Ar 8.65107 4.49568 8.88667
25 Ar 9.03215 8.98438 -0.15133
26 Ar 9.06322 8.93778 4.38922
27 Ar 8.83484 8.90286 8.90325
28 Ar 0.131327 2.20574 2.34879
29 Ar -0.0403655 2.12719 6.66505
30 Ar -0.155194 2.33331 11.2524
31 Ar -0.212871 6.67278 2.32581
32 Ar 0.0539935 6.60676 6.54603
33 Ar 0.0264855 6.71772 11.0966
34 Ar 0.168383 11.1169 2.17959
35 Ar 0.0249962 11.3492 6.65617
36 Ar 0.105628 11.0664 11.1673
37 Ar 4.47725 2.17061 2.15265
38 Ar 4.53904 2.34744 6.66557
39 Ar 4.56728 2.0426 11.1365
40 Ar 4.53986 6.62425 2.20021
41 Ar 4.35737 6.80382 6.62336
42 Ar 4.44832 6.44624 11.1367
43 Ar 4.55304 11.0412 2.04556
44 Ar 4.3867 11.0915 6.72297
45 Ar 4.46392 11.1015 11.2046
46 Ar 8.83827 2.2826 2.38294
47 Ar 8.68359 2.28584 6.55669
48 Ar 8.99443 2.29184 11.1002
49 Ar 9.01221 6.77674 2.18477
50 Ar 8.89706 6.79638 6.94203
51 Ar 8.78763 6.65296 11.074
52 Ar 8.92063 11.2599 2.3713
53 Ar 8.95328 11.0144 6.48832
54 Ar 8.91911 11.1528 11.0685
55 Ar 2.27159 -0.0683276 2.20673
56 Ar 2.3143 0.121049 6.83748
57 Ar 2.13032 0.107633 11.0516
58 Ar 2.36503 4.40073 2.31792
59 Ar 2.34949 4.45023 6.64356
60 Ar 2.11766 4.2527 11.387
61 Ar 2.29556 8.88803 2.35387
62 Ar 2.11164 8.89238 6.60263
63 Ar 2.33228 8.68839 11.2312
64 Ar 6.79735 0.0263451 2.41786
65 Ar 6.52398 -0.121993 6.49308
66 Ar 6.84404 -0.00658246 11.0121
67 Ar 6.72173 4.58975 2.09844
68 Ar 6.32245 4.61156 6.71087
69 Ar 6.72608 4.4302 11.1821
70 Ar 6.67785 8.95453 2.0725
71 Ar 6.55438 9.0548 6.74397
72 Ar 6.70549 8.93669 11.181
73 Ar 11.335 -0.0486114 2.38614
74 Ar 11.0791 -0.000947517 6.82919
75 Ar 10.9119 -0.0134307 10.8966
76 Ar 11.1129 4.38699 2.33457
77 Ar 10.8299 4.35442 6.57094
78 Ar 10.8573 4.47195 11.0382
79 Ar 11.1937 8.90681 2.13781
80 Ar 10.9621 8.87831 6.75934
81 Ar 11.1664 8.78398 11.2282
82 Ar 1.97075 2.20174 0.211117
83 Ar 2.40115 2.23157 4.47655
84 Ar 2.3843 2.36511 8.84709
85 Ar 2.22961 6.61328 0.104673
86 Ar 2.28002 6.61591 4.1867
87 Ar 2.41234 6.81058 8.90507
88 Ar 2.34426 11.1305 -0.119794
89 Ar 2.44856 11.1519 4.31759
90 Ar 2.02163 11.0607 9.00805
91 Ar 6.81527 2.19152 0.0694518
92 Ar 6.582 2.42633 4.4675
93 Ar 6.5675 2.128 8.86819
94 Ar 6.50708 6.64318 -0.0467178
95 Ar 6.88179 6.83628 4.5001
96 Ar 6.48643 6.79309 8.88958
97 Ar 6.73822 11.1942 -0.07979
98 Ar 6.68724 10.9201 4.42692
99 Ar 6.59616 11.1068 8.88642
100 Ar 11.2733 2.08939 0.108517
101 Ar 11.0133 2.14961 4.57942
102 Ar 11.0711 2.08787 8.78976
103 Ar 10.938 6.73659 0.0498065
104 Ar 11.0888 6.61088 4.7711
105 Ar 11.3085 6.63154 8.83607
106 Ar 11.1425 11.1663 0.0191836
107 Ar 11.3601 11.1736 4.51541
108 Ar 11.2178 10.9585 8.80965
ITEM: TIMESTEP
8070
ITEM: NUMBER OF ATOMS
108
ITEM: BOX BOUNDS pp pp pp
0.0000000000000000e+00 1.3349999400000000e+01
0.0000000000000000e+00 1.3349999400000000e+01
0.0000000000000000e+00 1.3349999400000000e+01
ITEM: ATOMS id element xu yu zu
1 Ar -0.0901139 0.0139659 -0.0482389
2 Ar 0.176594 0.120383 4.43667
3 Ar -0.0896178 -0.114562 9.17179
4 Ar -0.111136 4.59154 -0.0891631
5 Ar 0.150221 4.33562 4.37158
6 Ar -0.0602627 4.2936 8.67421
7 Ar 0.128486 8.83218 0.193045
8 Ar 0.0370982 8.87611 4.42467
9 Ar -0.0303915 8.99016 8.95504
10 Ar 4.36566 0.117728 0.101571
11 Ar 4.58591 0.0329881 4.36154
12 Ar 4.3643 0.105294 8.87242
13 Ar 4.42964 4.11171 -0.149793
14 Ar 4.54446 4.56549 4.37839
15 Ar 4.38599 4.6534 8.95817
16 Ar 4.40332 8.86711 0.00402518
17 Ar 4.46342 8.78595 4.36835
18 Ar 4.34433 8.96384 8.81426
19 Ar 9.00089 -0.0904895 0.0592397
20 Ar 9.05009 0.00870958 4.57623
21 Ar 8.77647 0.126107 8.638
22 Ar 8.91235 4.32628 -0.0990329
23 Ar 8.63959 4.57473 4.44819
24 Ar 8.65174 4.50088 8.87738
25 Ar 9.01813 8.97796 -0.158953
26 Ar 9.05751 8.94461 4.40304
27 Ar 8.81372 8.89346 8.89253
28 Ar 0.111097 2.2069 2.333
29 Ar -0.0355599 2.14037 6.64459
30 Ar -0.157 2.35089 11.2536
31 Ar -0.192211 6.67263 2.31362
32 Ar 0.0376269 6.59791 6.54352
33 Ar 0.0226661 6.70796 11.1022
34 Ar 0.179306 11.1282 2.17033
35 Ar 0.0535423 11.3564 6.67042
36 Ar 0.10505 11.0481 11.1698
37 Ar 4.46071 2.17259 2.1558
38 Ar 4.53463 2.36957 6.65338
39 Ar 4.55232 2.03331 11.1232
40 Ar 4.55565 6.62552 2.22164
41 Ar 4.38199 6.79844 6.64184
42 Ar 4.44066 6.45946 11.1315
43 Ar 4.55335 11.0438 2.03858
44 Ar 4.37341 11.097 6.71995
45 Ar 4.4907 11.1023 11.1867
46 Ar 8.83257 2.29108 2.37507
47 Ar 8.65804 2.29207 6.56264
48 Ar 8.98825 2.26733 11.1187
49 Ar 8.99668 6.76601 2.1657
50 Ar 8.9036 6.82494 6.93405
51 Ar 8.79757 6.64395 11.0604
52 Ar 8.92117 11.2494 2.38295
53 Ar 8.96961 11.0403 6.49853
54 Ar 8.9223 11.1507 11.0552
55 Ar 2.26832 -0.0813162 2.19151
56 Ar 2.30537 0.129953 6.83987
57 Ar 2.14199 0.124368 11.0456
58 Ar 2.37996 4.41451 2.2951
59 Ar 2.35957 4.42078 6.63577
60 Ar 2.11051 4.23922 11.3743
61 Ar 2.27594 8.89379 2.3678
62 Ar 2.1124 8.9061 6.59502
63 Ar 2.32151 8.66405 11.2377
64 Ar 6.79878 0.0274793 2.42976
65 Ar 6.52921 -0.12511 6.50009
66 Ar 6.83196 0.00658173 10.9985
67 Ar 6.71277 4.58754 2.10194
68 Ar 6.31337 4.60612 6.72728
69 Ar 6.72306 4.46313 11.1775
70 Ar 6.68567 8.94876 2.06384
71 Ar 6.55382 9.04709 6.72622
72 Ar 6.7076 8.92252 11.1732
73 Ar 11.3456 -0.0563929 2.39569
74 Ar 11.0956 -0.00967107 6.84119
75 Ar 10.9176 -0.020273 10.8988
76 Ar 11.0992 4.39181 2.3338
77 Ar 10.815 4.35743 6.59058
78 Ar 10.8765 4.45709 11.0274
79 Ar 11.1849 8.91782 2.11833
80 Ar 10.959 8.87372 6.76408
81 Ar 11.1576 8.78605 11.2171
82 Ar 1.97721 2.20684 0.217956
83 Ar 2.39193 2.23029 4.48171
84 Ar 2.39796 2.38028 8.82578
85 Ar 2.19782 6.60469 0.0994699
86 Ar 2.27578 6.60603 4.17529
87 Ar 2.40969 6.81927 8.91119
88 Ar 2.35529 11.1356 -0.103579
89 Ar 2.45022 11.1697 4.3081
90 Ar 2.03053 11.0609 9.00315
91 Ar 6.81721 2.1824 0.0833753
92 Ar 6.55179 2.40862 4.48086
93 Ar 6.56014 2.11947 8.87118
94 Ar 6.48745 6.64109 -0.0531932
95 Ar 6.89841 6.83531 4.5041
96 Ar 6.48048 6.82535 8.89596
97 Ar 6.75326 11.206 -0.0551735
98 Ar 6.69561 10.9227 4.41815
99 Ar 6.59539 11.1083 8.8964
100 Ar 11.2855 2.08503 0.102178
101 Ar 11.0209 2.16702 4.5552
102 Ar 11.0807 2.07669 8.79229
103 Ar 10.9286 6.70824 0.0533444
104 Ar 11.0986 6.60989 4.77026
105 Ar 11.3082 6.6071 8.83401
106 Ar 11.1532 11.1558 0.0268881
107 Ar 11.3657 11.1866 4.52095
108 Ar 11.2236 10.9559 8.80407
ITEM: TIMESTEP
8080
ITEM: NUMBER OF ATOMS
108
ITEM: BOX BOUNDS pp pp pp
0.0000000000000000e+00 1.3349999400000000e+01
0.0000000000000000e+00 1.3349999400000000e+01
0.0000000000000000e+00 1.3349999400000000e+01
ITEM: ATOMS id element xu yu zu
1 Ar -0.091386 -0.00475679 -0.029502
2 Ar 0.166592 0.127957 4.43057
3 Ar -0.0788715 -0.114959 9.16638
4 Ar -0.128238 4.60588 -0.0742815
5 Ar 0.163419 4.37536 4.37951
6 Ar -0.0575366 4.30243 8.69574
7 Ar 0.147095 8.81948 0.226224
8 Ar 0.0547474 8.8611 4.41851
9 Ar -0.0190923 8.95065 8.9491
10 Ar 4.36995 0.115153 0.0826783
11 Ar 4.5844 0.0191415 4.3776
12 Ar 4.36271 0.103203 8.88708
13 Ar 4.43852 4.10523 -0.144817
14 Ar 4.54613 4.54343 4.36587
15 Ar 4.3776 4.64083 8.94676
16 Ar 4.40726 8.88857 0.0193556
17 Ar 4.4558 8.79401 4.36901
18 Ar 4.3404 8.9636 8.82246
19 Ar 8.9853 -0.0899283 0.068987
20 Ar 9.05245 0.018773 4.57949
21 Ar 8.78119 0.107434 8.6348
22 Ar 8.91755 4.33841 -0.0775959
23 Ar 8.63206 4.59834 4.45384
24 Ar 8.65342 4.50476 8.86676
25 Ar 9.00088 8.97176 -0.163709
26 Ar 9.05169 8.9504 4.41592
27 Ar 8.79343 8.88619 8.88449
28 Ar 0.088185 2.20885 2.31743
29 Ar -0.029921 2.1539 6.62444
30 Ar -0.158733 2.36671 11.2509
31 Ar -0.170376 6.67081 2.3012
32 Ar 0.0233025 6.58908 6.54306
33 Ar 0.0188925 6.6965 11.1073
34 Ar 0.188725 11.1394 2.16171
35 Ar 0.0835813 11.3614 6.68425
36 Ar 0.101895 11.0289 11.1755
37 Ar 4.4453 2.17598 2.16083
38 Ar 4.52899 2.38834 6.64143
39 Ar 4.53654 2.02598 11.1102
40 Ar 4.5709 6.62789 2.24157