ITEM: TIMESTEP
66000
ITEM: NUMBER OF ATOMS
108
ITEM: BOX BOUNDS pp pp pp
0.0000000000000000e+00 1.3349999400000000e+01
0.0000000000000000e+00 1.3349999400000000e+01
0.0000000000000000e+00 1.3349999400000000e+01
ITEM: ATOMS id element xu yu zu
1 Ar -0.251885 0.0280768 0.126369
2 Ar 0.207719 -0.160001 4.48946
3 Ar -0.0441473 -0.175677 8.97122
4 Ar 0.0073345 4.37891 0.0515406
5 Ar -0.0634495 4.42627 4.37496
6 Ar -0.071836 4.48016 9.03029
7 Ar 0.0647479 8.94748 -0.0630347
8 Ar -0.0412204 8.82044 4.54526
9 Ar -0.00619867 8.91293 8.86222
10 Ar 4.42336 -0.0768819 -0.0465639
11 Ar 4.52078 0.200584 4.48013
12 Ar 4.5337 0.165428 9.01968
13 Ar 4.24537 4.4095 0.0417583
14 Ar 4.40835 4.49421 4.30636
15 Ar 4.41518 4.48149 8.92669
16 Ar 4.4009 9.09821 0.0567079
17 Ar 4.48455 8.99732 4.51657
18 Ar 4.64364 8.79278 8.96954
19 Ar 9.05311 0.0851153 0.170155
20 Ar 8.75471 0.0346457 4.61839
21 Ar 8.88573 0.0772171 8.70625
22 Ar 8.87187 4.46226 0.0523121
23 Ar 8.83685 4.47806 4.3135
24 Ar 8.93712 4.45861 8.80751
25 Ar 9.10797 8.71263 0.0523073
26 Ar 8.78061 9.03313 4.38122
27 Ar 8.95261 8.88648 8.9072
28 Ar -0.0394722 2.32763 2.18557
29 Ar 0.0596137 2.38883 6.75867
30 Ar 0.104362 2.11036 11.098
31 Ar -0.0748602 6.76196 2.25103
32 Ar 0.0676749 6.66864 6.65131
33 Ar 0.0577894 6.75535 11.1118
34 Ar 0.181958 11.1821 2.26011
35 Ar -0.100461 11.0567 6.69766
36 Ar 0.104469 11.1172 11.0493
37 Ar 4.44634 2.14727 2.27105
38 Ar 4.41515 2.191 6.68748
39 Ar 4.33143 2.16774 11.201
40 Ar 4.43452 6.61381 2.19148
41 Ar 4.46667 6.87891 6.68813
42 Ar 4.47264 6.63535 11.3225
43 Ar 4.46485 11.1224 2.24948
44 Ar 4.60757 11.1122 6.80816
45 Ar 4.51351 11.1207 10.8251
46 Ar 8.69473 2.07307 2.29019
47 Ar 8.91606 2.31554 6.77025
48 Ar 9.03294 2.19942 11.1192
49 Ar 8.84221 6.62198 2.22573
50 Ar 8.85507 6.57471 6.55335
51 Ar 8.8294 6.60656 11.1628
52 Ar 8.88147 11.1986 2.18488
53 Ar 8.84744 11.1535 6.51916
54 Ar 9.08358 11.0721 11.2139
55 Ar 2.2172 0.0724811 2.17217
56 Ar 2.31205 0.155711 6.70999
57 Ar 2.27002 -0.149854 11.0237
58 Ar 2.18806 4.41857 2.34229
59 Ar 2.24008 4.52909 6.81577
60 Ar 2.05338 4.47745 11.1262
61 Ar 2.33462 8.95667 2.1774
62 Ar 2.23797 8.8924 6.69412
63 Ar 2.4113 8.91205 11.0621
64 Ar 6.47712 -0.0891533 2.03596
65 Ar 6.62057 -0.076708 6.74687
66 Ar 6.8204 -0.132199 10.9987
67 Ar 6.7472 4.32764 2.25771
68 Ar 6.52565 4.62112 6.75211
69 Ar 6.59053 4.18381 11.0442
70 Ar 6.71891 9.0422 2.20511
71 Ar 6.82016 8.98298 6.58343
72 Ar 6.67161 8.86225 11.1674
73 Ar 11.1741 -0.0356652 2.41252
74 Ar 11.1719 -0.0337379 6.41654
75 Ar 11.0732 0.0384838 11.1206
76 Ar 10.9623 4.55416 2.18054
77 Ar 11.1428 4.24957 6.53087
78 Ar 11.0502 4.51983 11.2809
79 Ar 11.13 8.78543 2.28698
80 Ar 11.0659 8.76195 6.5809
81 Ar 11.2835 8.79416 11.1171
82 Ar 2.12326 2.25995 0.0412915
83 Ar 2.15905 2.32825 4.58362
84 Ar 2.23598 2.34111 9.07117
85 Ar 2.30832 6.76213 0.0836393
86 Ar 2.24422 6.59682 4.35674
87 Ar 2.16467 6.7641 9.07413
88 Ar 2.13805 11.1853 -0.263795
89 Ar 2.43859 11.0933 4.67335
90 Ar 2.11256 11.0458 8.83733
91 Ar 6.65708 2.21885 -0.192582
92 Ar 6.51316 2.42941 4.55113
93 Ar 6.66584 2.2768 8.91534
94 Ar 6.52771 6.65268 0.0583799
95 Ar 6.59517 6.68719 4.45165
96 Ar 6.77059 6.72021 8.96684
97 Ar 6.9496 11.0882 -0.113073
98 Ar 6.53184 11.2196 4.45162
99 Ar 6.90407 11.1453 8.78809
100 Ar 11.0475 2.26677 0.0542409
101 Ar 11.0693 2.2316 4.36973
102 Ar 11.0425 2.10017 8.75473
103 Ar 11.1838 6.58068 -0.0574963
104 Ar 11.0416 6.67494 4.42354
105 Ar 11.1015 6.59342 8.86157
106 Ar 11.1568 11.1402 0.0313752
107 Ar 11.1401 11.0875 4.46081
108 Ar 11.0621 11.0158 8.65903
ITEM: TIMESTEP
66010
ITEM: NUMBER OF ATOMS
108
ITEM: BOX BOUNDS pp pp pp
0.0000000000000000e+00 1.3349999400000000e+01
0.0000000000000000e+00 1.3349999400000000e+01
0.0000000000000000e+00 1.3349999400000000e+01
ITEM: ATOMS id element xu yu zu
1 Ar -0.260071 0.0372427 0.123167
2 Ar 0.218098 -0.176975 4.49962
3 Ar -0.0429003 -0.173296 8.96722
4 Ar 0.0117126 4.38526 0.0670593
5 Ar -0.0762202 4.43081 4.38373
6 Ar -0.0757407 4.49223 9.03227
7 Ar 0.0661718 8.92864 -0.0418177
8 Ar -0.0461203 8.81063 4.54739
9 Ar -0.0295913 8.88373 8.86304
10 Ar 4.44756 -0.0597146 -0.0552438
11 Ar 4.50573 0.184283 4.48139
12 Ar 4.52965 0.185511 9.01738
13 Ar 4.2385 4.40596 0.0181301
14 Ar 4.40469 4.49299 4.32174
15 Ar 4.40553 4.47956 8.93585
16 Ar 4.42783 9.09817 0.0684407
17 Ar 4.49237 8.99275 4.52674
18 Ar 4.64704 8.80538 8.96239
19 Ar 9.04961 0.0818852 0.187393
20 Ar 8.76322 0.0372044 4.62667
21 Ar 8.88269 0.0944756 8.68665
22 Ar 8.8743 4.45831 0.050617
23 Ar 8.82565 4.46059 4.30867
24 Ar 8.92881 4.4742 8.82088
25 Ar 9.085 8.70137 0.0811165
26 Ar 8.79089 9.02319 4.3753
27 Ar 8.95456 8.88692 8.90361
28 Ar -0.0402436 2.33778 2.1793
29 Ar 0.0858121 2.40375 6.75728
30 Ar 0.110602 2.11133 11.1109
31 Ar -0.0682311 6.76623 2.25469
32 Ar 0.0726733 6.67221 6.64721
33 Ar 0.0732751 6.73761 11.1187
34 Ar 0.151101 11.1955 2.26229
35 Ar -0.0888541 11.052 6.71066
36 Ar 0.111823 11.1186 11.0538
37 Ar 4.46279 2.16665 2.26042
38 Ar 4.40827 2.18126 6.70317
39 Ar 4.3219 2.17415 11.1907
40 Ar 4.42773 6.59318 2.18277
41 Ar 4.48113 6.88021 6.67256
42 Ar 4.48698 6.63393 11.3237
43 Ar 4.48568 11.1067 2.24782
44 Ar 4.61556 11.1036 6.80063
45 Ar 4.51234 11.1128 10.8245
46 Ar 8.67663 2.06946 2.28937
47 Ar 8.92042 2.31276 6.77475
48 Ar 9.02626 2.20261 11.1147
49 Ar 8.84602 6.61688 2.2165
50 Ar 8.85235 6.58404 6.53761
51 Ar 8.81191 6.60662 11.1684
52 Ar 8.87921 11.2119 2.17553
53 Ar 8.86011 11.1511 6.51774
54 Ar 9.09444 11.0398 11.21
55 Ar 2.21832 0.0744455 2.15711
56 Ar 2.31295 0.150068 6.73977
57 Ar 2.27028 -0.128993 11.0389
58 Ar 2.1729 4.42067 2.34991
59 Ar 2.23969 4.51389 6.79838
60 Ar 2.06132 4.4834 11.1321
61 Ar 2.3191 8.9682 2.17704
62 Ar 2.21324 8.88063 6.69474
63 Ar 2.40895 8.90629 11.0326
64 Ar 6.47931 -0.0576251 2.03051
65 Ar 6.62598 -0.0726368 6.72268
66 Ar 6.81803 -0.144503 10.9795
67 Ar 6.7492 4.33964 2.26162
68 Ar 6.54031 4.62351 6.74809
69 Ar 6.5875 4.18249 11.0415
70 Ar 6.70189 9.01774 2.19186
71 Ar 6.83099 8.95863 6.58136
72 Ar 6.65278 8.87632 11.1723
73 Ar 11.1995 -0.0164172 2.40124
74 Ar 11.1713 -0.0260984 6.42218
75 Ar 11.0669 0.0454175 11.1132
76 Ar 10.9404 4.55425 2.16726
77 Ar 11.1353 4.25373 6.54311
78 Ar 11.0556 4.51951 11.2916
79 Ar 11.1364 8.78558 2.30068
80 Ar 11.0669 8.76588 6.56276
81 Ar 11.299 8.80145 11.1046
82 Ar 2.13922 2.2615 0.0399711
83 Ar 2.14064 2.32512 4.59468
84 Ar 2.23267 2.32764 9.07918
85 Ar 2.30491 6.77162 0.0557721
86 Ar 2.24818 6.61007 4.3488
87 Ar 2.16366 6.75853 9.06436
88 Ar 2.1464 11.1718 -0.260043
89 Ar 2.45394 11.0934 4.66391
90 Ar 2.11397 11.0322 8.85351
91 Ar 6.63807 2.2354 -0.194121
92 Ar 6.50481 2.41687 4.56082
93 Ar 6.6711 2.26904 8.90019
94 Ar 6.53219 6.66076 0.0551235
95 Ar 6.59845 6.69941 4.47288
96 Ar 6.75322 6.73213 8.9648
97 Ar 6.964 11.0814 -0.127135
98 Ar 6.53597 11.238 4.45999
99 Ar 6.91231 11.132 8.79195
100 Ar 11.0346 2.26622 0.0436429
101 Ar 11.069 2.22123 4.3866
102 Ar 11.0316 2.09995 8.75908
103 Ar 11.1871 6.5633 -0.0476878
104 Ar 11.0552 6.66441 4.45236
105 Ar 11.1135 6.60539 8.85223
106 Ar 11.1472 11.149 0.0239565
107 Ar 11.1328 11.1062 4.46034
108 Ar 11.0546 11.0172 8.67299
ITEM: TIMESTEP
66020
ITEM: NUMBER OF ATOMS
108
ITEM: BOX BOUNDS pp pp pp
0.0000000000000000e+00 1.3349999400000000e+01
0.0000000000000000e+00 1.3349999400000000e+01
0.0000000000000000e+00 1.3349999400000000e+01
ITEM: ATOMS id element xu yu zu
1 Ar -0.264535 0.0465126 0.117661
2 Ar 0.227574 -0.191152 4.51009
3 Ar -0.0421621 -0.16763 8.9605
4 Ar 0.0158532 4.39398 0.0816598
5 Ar -0.0892049 4.43677 4.39318
6 Ar -0.0807074 4.50345 9.03281
7 Ar 0.06704 8.90976 -0.0193538
8 Ar -0.0489451 8.80288 4.54745
9 Ar -0.0535913 8.85379 8.86366
10 Ar 4.47131 -0.0433556 -0.0656751
11 Ar 4.48881 0.16514 4.48214
12 Ar 4.52451 0.20303 9.01272
13 Ar 4.23415 4.40166 -0.00512704
14 Ar 4.40118 4.49162 4.34035
15 Ar 4.39585 4.47886 8.9455
16 Ar 4.45633 9.09734 0.0780312
17 Ar 4.50033 8.98585 4.53513
18 Ar 4.64866 8.81882 8.95333
19 Ar 9.04423 0.0775024 0.201282
20 Ar 8.77155 0.0410833 4.63134
21 Ar 8.88103 0.109048 8.66933
22 Ar 8.87427 4.45358 0.047574
23 Ar 8.8151 4.44181 4.3073
24 Ar 8.92041 4.49006 8.83615
25 Ar 9.06018 8.6922 0.108547
26 Ar 8.80281 9.01151 4.36834
27 Ar 8.95652 8.8861 8.90024
28 Ar -0.041689 2.34562 2.1753
29 Ar 0.111117 2.41523 6.7564
30 Ar 0.113299 2.11257 11.1246
31 Ar -0.0596474 6.7688 2.25738
32 Ar 0.0765372 6.67405 6.64384
33 Ar 0.0878364 6.71912 11.1274
34 Ar 0.11934 11.2062 2.26429
35 Ar -0.0752094 11.0478 6.7221
36 Ar 0.114547 11.119 11.0592
37 Ar 4.47848 2.18787 2.2479
38 Ar 4.40223 2.17479 6.72023
39 Ar 4.31295 2.18144 11.1811
40 Ar 4.42203 6.57458 2.17482
41 Ar 4.49443 6.87889 6.65753
42 Ar 4.50104 6.63214 11.3217
43 Ar 4.50454 11.0927 2.24567
44 Ar 4.62067 11.0952 6.79465
45 Ar 4.512 11.1056 10.8267
46 Ar 8.66018 2.0668 2.2892
47 Ar 8.92154 2.30991 6.77475
48 Ar 9.01747 2.20629 11.1095
49 Ar 8.84845 6.61413 2.20779
50 Ar 8.85041 6.59417 6.52326
51 Ar 8.79473 6.60705 11.1739
52 Ar 8.8779 11.2247 2.16833
53 Ar 8.87465 11.148 6.51767
54 Ar 9.10527 11.0074 11.2036
55 Ar 2.22009 0.075482 2.1428
56 Ar 2.31227 0.141411 6.77134
57 Ar 2.26994 -0.105522 11.0545
58 Ar 2.15753 4.42278 2.35481
59 Ar 2.24022 4.49977 6.77997
60 Ar 2.07177 4.48992 11.1395
61 Ar 2.3017 8.9798 2.17883
62 Ar 2.18901 8.86841 6.69573
63 Ar 2.40504 8.90076 11.0048
64 Ar 6.48463 -0.0254231 2.02726
65 Ar 6.63093 -0.0652238 6.69809
66 Ar 6.8161 -0.15499 10.9627
67 Ar 6.74793 4.35328 2.26281
68 Ar 6.5554 4.62376 6.74342
69 Ar 6.58573 4.1867 11.04
70 Ar 6.6843 8.99134 2.1784
71 Ar 6.84045 8.93271 6.58118
72 Ar 6.63566 8.89099 11.1779
73 Ar 11.224 0.00308406 2.39032
74 Ar 11.1716 -0.0169676 6.43086
75 Ar 11.0616 0.0507282 11.105
76 Ar 10.9214 4.55173 2.15528
77 Ar 11.1276 4.26228 6.55692
78 Ar 11.0626 4.51687 11.2985
79 Ar 11.1427 8.78868 2.31346
80 Ar 11.0671 8.7707 6.54595
81 Ar 11.3117 8.81013 11.0922
82 Ar 2.15606 2.26087 0.0381043
83 Ar 2.12305 2.32091 4.60345
84 Ar 2.22876 2.31252 9.08389
85 Ar 2.29901 6.78029 0.0274686
86 Ar 2.25173 6.6257 4.34279
87 Ar 2.16508 6.75143 9.05122
88 Ar 2.15663 11.1583 -0.251565
89 Ar 2.46704 11.095 4.65261
90 Ar 2.11867 11.0197 8.86789
91 Ar 6.61941 2.25015 -0.192746
92 Ar 6.49965 2.40197 4.5713
93 Ar 6.67674 2.26051 8.88359
94 Ar 6.53912 6.66836 0.0521401
95 Ar 6.60214 6.71183 4.49211
96 Ar 6.73535 6.74251 8.96225
97 Ar 6.97513 11.0752 -0.140548
98 Ar 6.54177 11.2563 4.46698
99 Ar 6.91948 11.1172 8.79828
100 Ar 11.0229 2.26627 0.0337029
101 Ar 11.069 2.21073 4.40288
102 Ar 11.0247 2.10122 8.76599
103 Ar 11.1911 6.5485 -0.0365909
104 Ar 11.0692 6.65254 4.48131
105 Ar 11.1252 6.61778 8.84268
106 Ar 11.1382 11.1559 0.017358
107 Ar 11.1255 11.1238 4.45815
108 Ar 11.0466 11.0205 8.68984
ITEM: TIMESTEP
66030
ITEM: NUMBER OF ATOMS
108
ITEM: BOX BOUNDS pp pp pp
0.0000000000000000e+00 1.3349999400000000e+01
0.0000000000000000e+00 1.3349999400000000e+01
0.0000000000000000e+00 1.3349999400000000e+01
ITEM: ATOMS id element xu yu zu
1 Ar -0.265082 0.0557373 0.109688
2 Ar 0.236183 -0.202385 4.52091
3 Ar -0.0419068 -0.158819 8.95136
4 Ar 0.019834 4.40485 0.0951082
5 Ar -0.102309 4.44401 4.40307
6 Ar -0.0864967 4.5135 9.03193
7 Ar 0.0671019 8.89128 0.00386473
8 Ar -0.0496683 8.79754 4.54538
9 Ar -0.0776952 8.82372 8.86396
10 Ar 4.49433 -0.0281957 -0.0777698
11 Ar 4.46999 0.143811 4.4822
12 Ar 4.51844 0.217329 9.00594
13 Ar 4.23237 4.39693 -0.0276066
14 Ar 4.39782 4.49005 4.36193
15 Ar 4.38628 4.47936 8.95528
16 Ar 4.48552 9.09552 0.0852079
17 Ar 4.50831 8.97689 4.54151
18 Ar 4.64837 8.83288 8.94217
19 Ar 9.03702 0.0722082 0.211336
20 Ar 8.77982 0.0462361 4.63218
21 Ar 8.88058 0.120381 8.65457
22 Ar 8.87152 4.44806 0.0430468
23 Ar 8.80546 4.42204 4.30946
24 Ar 8.91205 4.50609 8.85301
25 Ar 9.03418 8.68524 0.134141
26 Ar 8.81603 8.99844 4.36017
27 Ar 8.9585 8.88372 8.89706
28 Ar -0.0438391 2.35107 2.17366
29 Ar 0.134646 2.42314 6.75637
30 Ar 0.112371 2.11429 11.139
31 Ar -0.0493236 6.76948 2.25922
32 Ar 0.0792777 6.67387 6.64125
33 Ar 0.10105 6.70029 11.1379
34 Ar 0.0870755 11.2141 2.26593
35 Ar -0.059923 11.0439 6.73198
36 Ar 0.11277 11.1184 11.0655
37 Ar 4.49302 2.21069 2.23398
38 Ar 4.39702 2.17169 6.73813
39 Ar 4.30493 2.18963 11.172
40 Ar 4.41732 6.55806 2.16761
41 Ar 4.50611 6.8749 6.6435
42 Ar 4.51463 6.63018 11.3164
43 Ar 4.52149 11.0808 2.24302
44 Ar 4.62297 11.0871 6.79042
45 Ar 4.51229 11.0995 10.8316
46 Ar 8.64569 2.06531 2.28974
47 Ar 8.91948 2.30745 6.77022
48 Ar 9.00647 2.21035 11.1037
49 Ar 8.84955 6.61359 2.20018
50 Ar 8.84944 6.60481 6.51066
51 Ar 8.77817 6.60803 11.1793
52 Ar 8.8774 11.2366 2.16364
53 Ar 8.89067 11.1441 6.51901
54 Ar 9.11589 10.9753 11.1948
55 Ar 2.22257 0.0755156 2.12934
56 Ar 2.30997 0.129657 6.80422
57 Ar 2.269 -0.080198 11.0704
58 Ar 2.14235 4.4249 2.35707
59 Ar 2.24188 4.4872 6.76089
60 Ar 2.08449 4.4967 11.1482
61 Ar 2.28287 8.99136 2.18262
62 Ar 2.16582 8.85601 6.69703
63 Ar 2.39966 8.89546 10.9792
64 Ar 6.49277 0.00670285 2.02638
65 Ar 6.63521 -0.0548068 6.67375
66 Ar 6.81482 -0.163525 10.9484
67 Ar 6.7433 4.36849 2.26144
68 Ar 6.57068 4.62177 6.73836
69 Ar 6.58523 4.19622 11.0393
70 Ar 6.66665 8.96342 2.1654
71 Ar 6.84861 8.90606 6.5829
72 Ar 6.62055 8.90588 11.184
73 Ar 11.2469 0.022786 2.38004
74 Ar 11.1731 -0.00659287 6.44267
75 Ar 11.0569 0.0542663 11.0961
76 Ar 10.9059 4.5464 2.14516
77 Ar 11.1198 4.27486 6.5723
78 Ar 11.0712 4.51203 11.3013
79 Ar 11.1488 8.79457 2.3252
80 Ar 11.0665 8.7767 6.53083
81 Ar 11.3216 8.81972 11.0806
82 Ar 2.17342 2.25816 0.0358492
83 Ar 2.10675 2.31542 4.60952
84 Ar 2.22402 2.29627 9.08533
85 Ar 2.29108 6.78821 -0.000765202
86 Ar 2.25489 6.64347 4.33877
87 Ar 2.16899 6.74273 9.03472
88 Ar 2.1687 11.1449 -0.238657
89 Ar 2.47776 11.098 4.63961
90 Ar 2.12642 11.0083 8.88032
91 Ar 6.60147 2.26305 -0.188647
92 Ar 6.49747 2.38487 4.58236
93 Ar 6.68268 2.25162 8.86591
94 Ar 6.54832 6.67516 0.0494647
95 Ar 6.60623 6.72404 4.50858
96 Ar 6.71723 6.75121 8.95924
97 Ar 6.98292 11.0697 -0.152946
98 Ar 6.54935 11.274 4.47226
99 Ar 6.92554 11.1013 8.80657
100 Ar 11.0125 2.26688 0.024546
101 Ar 11.0696 2.20042 4.41838
102 Ar 11.0222 2.10425 8.77534
103 Ar 11.1955 6.53693 -0.0245222
104 Ar 11.0832 6.63921 4.5096
105 Ar 11.1362 6.63033 8.83307
106 Ar 11.1302 11.1606 0.0116442
107 Ar 11.1185 11.1401 4.45429
108 Ar 11.0384 11.0257 8.70922
ITEM: TIMESTEP
66040
ITEM: NUMBER OF ATOMS
108
ITEM: BOX BOUNDS pp pp pp
0.0000000000000000e+00 1.3349999400000000e+01
0.0000000000000000e+00 1.3349999400000000e+01
0.0000000000000000e+00 1.3349999400000000e+01
ITEM: ATOMS id element xu yu zu
1 Ar -0.261608 0.0647304 0.099162
2 Ar 0.243938 -0.210582 4.53207
3 Ar -0.0420919 -0.147097 8.94014
4 Ar 0.0237339 4.41756 0.107203
5 Ar -0.115379 4.45233 4.41319
6 Ar -0.0928169 4.52208 9.02969
7 Ar 0.0661088 8.8736 0.0273263
8 Ar -0.0483223 8.79487 4.54117
9 Ar -0.101326 8.79413 8.86381
10 Ar 4.51642 -0.0145949 -0.0913773
11 Ar 4.44927 0.121007 4.48141
12 Ar 4.51169 0.227829 8.99736
13 Ar 4.23319 4.39216 -0.0489141
14 Ar 4.39462 4.48826 4.38614
15 Ar 4.37698 4.48097 8.96481
16 Ar 4.51451 9.09254 0.0897573
17 Ar 4.51617 8.96625 4.54571
18 Ar 4.64609 8.84734 8.92887
19 Ar 9.02812 0.0662721 0.217156
20 Ar 8.78817 0.0525357 4.62909
21 Ar 8.88121 0.128042 8.64255
22 Ar 8.86591 4.44179 0.036951
23 Ar 8.79689 4.40163 4.31509
24 Ar 8.90386 4.52218 8.87112
25 Ar 9.00766 8.68064 0.157471
26 Ar 8.83017 8.98434 4.35071
27 Ar 8.96054 8.8795 8.89405
28 Ar -0.0466697 2.35413 2.1744
29 Ar 0.155551 2.42744 6.75747
30 Ar 0.10783 2.11677 11.1538
31 Ar -0.0375261 6.76816 2.26033
32 Ar 0.0809097 6.67143 6.63942
33 Ar 0.112519 6.68155 11.15
34 Ar 0.0547124 11.219 2.2671
35 Ar -0.0434271 11.0404 6.74036
36 Ar 0.106794 11.117 11.0727
37 Ar 4.50603 2.23485 2.21918
38 Ar 4.39261 2.17199 6.7563
39 Ar 4.29821 2.19873 11.1635
40 Ar 4.41342 6.54366 2.16108
41 Ar 4.51571 6.8682 6.63092
42 Ar 4.52758 6.6283 11.3078
43 Ar 4.5366 11.0716 2.23991
44 Ar 4.62264 11.0794 6.78803
45 Ar 4.51301 11.095 10.8392
46 Ar 8.63348 2.06526 2.29102
47 Ar 8.91448 2.30579 6.7613
48 Ar 8.99322 2.21466 11.0975
49 Ar 8.84942 6.61499 2.19423
50 Ar 8.84964 6.61562 6.50017
51 Ar 8.76255 6.60971 11.1845
52 Ar 8.87752 11.2474 2.16174
53 Ar 8.90775 11.1393 6.52174
54 Ar 9.12605 10.9438 11.1838
55 Ar 2.22577 0.0744746 2.11684
56 Ar 2.30613 0.114809 6.83787
57 Ar 2.26739 -0.0538537 11.0868
58 Ar 2.12778 4.42703 2.35689
59 Ar 2.24484 4.47662 6.74146
60 Ar 2.09912 4.50339 11.1575
61 Ar 2.26311 9.00279 2.18824
62 Ar 2.14418 8.84373 6.69857
63 Ar 2.39291 8.89029 10.9565
64 Ar 6.50328 0.0380116 2.028
65 Ar 6.63865 -0.0417949 6.6503
66 Ar 6.81434 -0.169992 10.9368
67 Ar 6.73538 4.38515 2.25773
68 Ar 6.58597 4.61751 6.73312
69 Ar 6.58597 4.2107 11.0393
70 Ar 6.64942 8.93438 2.15355
71 Ar 6.85555 8.87957 6.58651
72 Ar 6.60769 8.92057 11.1902
73 Ar 11.2678 0.0426296 2.37057
74 Ar 11.176 0.00473555 6.4576
75 Ar 11.0529 0.0559248 11.0867
76 Ar 10.8941 4.53812 2.13741
77 Ar 11.112 4.29101 6.58923
78 Ar 11.0812 4.5052 11.2999
79 Ar 11.1545 8.80299 2.33578
80 Ar 11.0652 8.78413 6.51771
81 Ar 11.3286 8.82972 11.0704
82 Ar 2.19093 2.2535 0.0333734
83 Ar 2.09216 2.30848 4.6125
84 Ar 2.21818 2.27946 9.08362
85 Ar 2.28167 6.79544 -0.0284082
86 Ar 2.25774 6.66312 4.33672
87 Ar 2.17537 6.73239 9.015
88 Ar 2.1825 11.1316 -0.221741
89 Ar 2.48595 11.102 4.62511
90 Ar 2.1369 10.9983 8.89069
91 Ar 6.58456 2.2741 -0.182103
92 Ar 6.49793 2.36579 4.59375
93 Ar 6.68881 2.2428 8.84759
94 Ar 6.55957 6.68084 0.0470703
95 Ar 6.61074 6.7356 4.52162
96 Ar 6.69909 6.75813 8.95581
97 Ar 6.98738 11.0655 -0.163981
98 Ar 6.55881 11.2905 4.4756
99 Ar 6.93047 11.0846 8.81626
100 Ar 11.0036 2.26797 0.0162652
101 Ar 11.0708 2.19065 4.43298
102 Ar 11.0242 2.10925 8.78693
103 Ar 11.2 6.52906 -0.0118229
104 Ar 11.097 6.62445 4.53648
105 Ar 11.1461 6.64273 8.82358
106 Ar 11.1232 11.1631 0.00686629
107 Ar 11.1118 11.1552 4.44886
108 Ar 11.0303 11.0328 8.73067
ITEM: TIMESTEP
66050
ITEM: NUMBER OF ATOMS
108
ITEM: BOX BOUNDS pp pp pp
0.0000000000000000e+00 1.3349999400000000e+01
0.0000000000000000e+00 1.3349999400000000e+01
0.0000000000000000e+00 1.3349999400000000e+01
ITEM: ATOMS id element xu yu zu
1 Ar -0.254105 0.0732713 0.0860992
2 Ar 0.250821 -0.215709 4.54352
3 Ar -0.0426708 -0.132768 8.92729
4 Ar 0.02762 4.43176 0.11778
5 Ar -0.128195 4.46143 4.42335
6 Ar -0.0993378 4.52896 9.02618
7 Ar 0.0638291 8.85715 0.0505158
8 Ar -0.0450048 8.79505 4.53489
9 Ar -0.123851 8.76567 8.8631
10 Ar 4.53741 -0.00287555 -0.106284
11 Ar 4.42678 0.0974562 4.47972
12 Ar 4.50453 0.234044 8.98741
13 Ar 4.23662 4.38778 -0.0686746
14 Ar 4.39162 4.4862 4.41255
15 Ar 4.3681 4.48356 8.97375
16 Ar 4.5424 9.08824 0.0915227
17 Ar 4.52379 8.95437 4.5476
18 Ar 4.64176 8.86196 8.91347
19 Ar 9.01771 0.0599751 0.218443
20 Ar 8.79679 0.0597795 4.6221
21 Ar 8.8828 0.131762 8.63342
22 Ar 8.85744 4.43487 0.0292703
23 Ar 8.78951 4.38098 4.32397
24 Ar 8.89598 4.53817 8.89013
25 Ar 8.98127 8.67858 0.178153
26 Ar 8.84484 8.96954 4.33995
27 Ar 8.96266 8.87319 8.89114
28 Ar -0.0501001 2.35484 2.17748
29 Ar 0.173076 2.42814 6.75993
30 Ar 0.0997753 2.12029 11.169
31 Ar -0.0245608 6.76477 2.26091
32 Ar 0.0814536 6.6666 6.63831
33 Ar 0.121883 6.66331 11.1635
34 Ar 0.0226613 11.221 2.26767
35 Ar -0.0261695 11.0372 6.74734
36 Ar 0.0970653 11.1149 11.0807
37 Ar 4.51719 2.26006 2.20404
38 Ar 4.38886 2.17561 6.77417
39 Ar 4.29317 2.20872 11.1554
40 Ar 4.41014 6.53138 2.15518
41 Ar 4.52287 6.85877 6.62016
42 Ar 4.53973 6.62675 11.2961
43 Ar 4.54997 11.0651 2.23636
44 Ar 4.61989 11.0722 6.78742
45 Ar 4.51391 11.0922 10.8496
46 Ar 8.62388 2.06694 2.29295
47 Ar 8.90693 2.30526 6.74832
48 Ar 8.97774 2.2191 11.091
49 Ar 8.84826 6.61791 2.19043
50 Ar 8.85114 6.62626 6.49206
51 Ar 8.74821 6.61226 11.1894
52 Ar 8.8781 11.2567 2.16282
53 Ar 8.92544 11.1337 6.5258
54 Ar 9.13545 10.9133 11.1709
55 Ar 2.22968 0.0722941 2.10539
56 Ar 2.30085 0.0969548 6.87168
57 Ar 2.26502 -0.027347 11.1037
58 Ar 2.11423 4.42921 2.35454
59 Ar 2.24917 4.46838 6.72199
60 Ar 2.11529 4.50962 11.1672
61 Ar 2.24295 9.01401 2.19549
62 Ar 2.12459 8.83186 6.70026
63 Ar 2.38485 8.88517 10.9369
64 Ar 6.51562 0.0677943 2.03221
65 Ar 6.64111 -0.0266628 6.62836
66 Ar 6.81476 -0.174298 10.9277
67 Ar 6.72434 4.40311 2.25201
68 Ar 6.60111 4.61101 6.72793
69 Ar 6.58789 4.22967 11.0397
70 Ar 6.63304 8.90463 2.14353
71 Ar 6.86134 8.85415 6.59196
72 Ar 6.59728 8.93462 11.196
73 Ar 11.2863 0.0625368 2.36201
74 Ar 11.1805 0.0167016 6.47558
75 Ar 11.0493 0.0556429 11.0769
76 Ar 10.8859 4.52687 2.13241
77 Ar 11.1042 4.31017 6.60768
78 Ar 11.0924 4.49666 11.2945
79 Ar 11.1598 8.81364 2.34508
80 Ar 11.0632 8.79318 6.5068
81 Ar 11.3329 8.83961 11.0621
82 Ar 2.20818 2.24709 0.0308481
83 Ar 2.07968 2.29995 4.6121
84 Ar 2.21104 2.26267 9.07898
85 Ar 2.27138 6.80205 -0.0549319
86 Ar 2.26035 6.68428 4.33657
87 Ar 2.18408 6.72045 8.99233
88 Ar 2.19781 11.1186 -0.201337
89 Ar 2.49154 11.1067 4.60932
90 Ar 2.14972 10.9899 8.89899
91 Ar 6.56905 2.28341 -0.173481
92 Ar 6.50061 2.34497 4.60512
93 Ar 6.69501 2.23447 8.82909
94 Ar 6.57254 6.68511 0.0448694
95 Ar 6.61568 6.74607 4.53063
96 Ar 6.68117 6.7632 8.95205
97 Ar 6.98862 11.0628 -0.173326
98 Ar 6.57016 11.3052 4.47683
99 Ar 6.93426 11.0676 8.82684
100 Ar 10.9962 2.26941 0.00891924
101 Ar 11.0728 2.18177 4.44661
102 Ar 11.0305 2.11643 8.80051
103 Ar 11.2044 6.52522 0.00115926
104 Ar 11.1104 6.6084 4.56121
105 Ar 11.1543 6.65466 8.81438
106 Ar 11.1174 11.1634 0.00306126
107 Ar 11.1057 11.1691 4.44202
108 Ar 11.0228 11.0418 8.75373
ITEM: TIMESTEP
66060
ITEM: NUMBER OF ATOMS
108
ITEM: BOX BOUNDS pp pp pp
0.0000000000000000e+00 1.3349999400000000e+01
0.0000000000000000e+00 1.3349999400000000e+01
0.0000000000000000e+00 1.3349999400000000e+01
ITEM: ATOMS id element xu yu zu
1 Ar -0.242674 0.0811111 0.070628
2 Ar 0.256784 -0.21779 4.55517
3 Ar -0.0436047 -0.116199 8.91328
4 Ar 0.0315367 4.44699 0.126715
5 Ar -0.140476 4.47095 4.43337
6 Ar -0.105702 4.53397 9.02149
7 Ar 0.060065 8.84231 0.0729304
8 Ar -0.0398807 8.79817 4.5267
9 Ar -0.144604 8.73895 8.86173
10 Ar 4.55718 0.00668569 -0.122222
11 Ar 4.40274 0.0738826 4.4771
12 Ar 4.49726 0.235606 8.97656
13 Ar 4.24266 4.38421 -0.0865433
14 Ar 4.38886 4.48381 4.44066
15 Ar 4.3598 4.48696 8.98179
16 Ar 4.56829 9.08249 0.0904087
17 Ar 4.53102 8.94173 4.54712
18 Ar 4.63539 8.87653 8.89614
19 Ar 9.006 0.05359 0.21501
20 Ar 8.80585 0.0677016 4.61135
21 Ar 8.88526 0.131452 8.6272
22 Ar 8.84627 4.42741 0.0200678
23 Ar 8.78337 4.36049 4.3358
24 Ar 8.88852 4.55389 8.90966
25 Ar 8.95562 8.67924 0.195854
26 Ar 8.85964 8.95439 4.32798
27 Ar 8.96488 8.86461 8.88826
28 Ar -0.0539934 2.35334 2.18276
29 Ar 0.186608 2.42533 6.76383
30 Ar 0.0883897 2.12515 11.1841
31 Ar -0.0107607 6.7593 2.26116
32 Ar 0.0809394 6.65933 6.63785
33 Ar 0.128816 6.64594 11.1778
34 Ar -0.00866637 11.2203 2.26756
35 Ar -0.00859631 11.0342 6.75303
36 Ar 0.0841486 11.1123 11.0894
37 Ar 4.52621 2.28599 2.18912
38 Ar 4.38562 2.18242 6.79116
39 Ar 4.29015 2.21951 11.1475
40 Ar 4.40724 6.52122 2.14985
41 Ar 4.52731 6.84665 6.61155
42 Ar 4.55093 6.62581 11.2813
43 Ar 4.56174 11.0617 2.23238
44 Ar 4.615 11.0657 6.78843
45 Ar 4.51477 11.0916 10.8626
46 Ar 8.61722 2.07069 2.29542
47 Ar 8.89733 2.30609 6.73178
48 Ar 8.96014 2.22352 11.0843
49 Ar 8.84633 6.62188 2.18919
50 Ar 8.85407 6.63639 6.48658
51 Ar 8.73546 6.61585 11.1941
52 Ar 8.879 11.2643 2.16694
53 Ar 8.94329 11.1273 6.53109
54 Ar 9.14372 10.8841 11.1567
55 Ar 2.23429 0.06892 2.09508
56 Ar 2.29432 0.0762616 6.90495
57 Ar 2.26182 -0.00151463 11.1211
58 Ar 2.10209 4.43147 2.35032
59 Ar 2.25486 4.46272 6.70276
60 Ar 2.13256 4.51506 11.1768
61 Ar 2.2229 9.02491 2.20418
62 Ar 2.10745 8.82069 6.70203
63 Ar 2.37555 8.87999 10.9208
64 Ar 6.52915 0.0953964 2.03907
65 Ar 6.64249 -0.00994925 6.60843
66 Ar 6.81615 -0.176376 10.9213
67 Ar 6.71049 4.42217 2.24467
68 Ar 6.61595 4.6024 6.72296
69 Ar 6.5909 4.25255 11.0403
70 Ar 6.61788 8.87461 2.13599
71 Ar 6.866 8.83062 6.59914
72 Ar 6.58948 8.94759 11.2012
73 Ar 11.302 0.0823982 2.35435
74 Ar 11.1865 0.0289816 6.49642
75 Ar 11.046 0.0534101 11.0669
76 Ar 10.8813 4.51273 2.1304
77 Ar 11.0965 4.3317 6.6276
78 Ar 11.1046 4.48673 11.2852
79 Ar 11.1646 8.82612 2.35296
80 Ar 11.0608 8.804 6.49822
81 Ar 11.3345 8.84886 11.0564
82 Ar 2.2248 2.23918 0.0284418
83 Ar 2.06964 2.28978 4.60812
84 Ar 2.20244 2.24648 9.07176
85 Ar 2.26092 6.80813 -0.0798096
86 Ar 2.26281 6.70655 4.33822
87 Ar 2.19492 6.70701 8.96709
88 Ar 2.2144 11.1061 -0.178023
89 Ar 2.49445 11.1116 4.59246
90 Ar 2.16443 10.9833 8.9053
91 Ar 6.55526 2.29112 -0.163218
92 Ar 6.50505 2.32272 4.61608
93 Ar 6.70116 2.22698 8.81092
94 Ar 6.58682 6.68767 0.0427225
95 Ar 6.62109 6.75497 4.53517
96 Ar 6.66367 6.76638 8.94802
97 Ar 6.98679 11.062 -0.180688
98 Ar 6.58335 11.3176 4.47589
99 Ar 6.9369 11.0506 8.83783
100 Ar 10.9902 2.27105 0.00253161
101 Ar 11.0756 2.1741 4.45926
102 Ar 11.0407 2.12591 8.81576
103 Ar 11.2083 6.52551 0.0140907
104 Ar 11.123 6.59134 4.58316
105 Ar 11.1605 6.66577 8.80564
106 Ar 11.1127 11.1616 0.000250907
107 Ar 11.1002 11.1821 4.434
108 Ar 11.0163 11.0526 8.77787
ITEM: TIMESTEP
66070
ITEM: NUMBER OF ATOMS
108
ITEM: BOX BOUNDS pp pp pp
0.0000000000000000e+00 1.3349999400000000e+01
0.0000000000000000e+00 1.3349999400000000e+01
0.0000000000000000e+00 1.3349999400000000e+01
ITEM: ATOMS id element xu yu zu
1 Ar -0.227514 0.0879808 0.052996
2 Ar 0.261749 -0.216904 4.56688
3 Ar -0.0448707 -0.0978015 8.89867
4 Ar 0.0354956 4.46279 0.133924
5 Ar -0.15188 4.48046 4.44308
6 Ar -0.111537 4.53703 9.01574
7 Ar 0.0546695 8.82946 0.0940949
8 Ar -0.0331793 8.80422 4.51682
9 Ar -0.16292 8.71458 8.85966
10 Ar 4.57569 0.0138693 -0.138874
11 Ar 4.37744 0.050977 4.47361
12 Ar 4.49021 0.232282 8.9653
13 Ar 4.25127 4.38189 -0.102218
14 Ar 4.38642 4.48104 4.46988
15 Ar 4.35225 4.49094 8.98864
16 Ar 4.59138 9.0752 0.086392
17 Ar 4.53773 8.92881 4.5443
18 Ar 4.62702 8.8908 8.87715
19 Ar 8.99322 0.0473633 0.206799
20 Ar 8.81551 0.0759906 4.5971
21 Ar 8.88852 0.127211 8.62384
22 Ar 8.83272 4.41955 0.00948831
23 Ar 8.77849 4.34057 4.35016
24 Ar 8.8816 4.56916 8.9293
25 Ar 8.93128 8.6828 0.210311
26 Ar 8.87421 8.93918 4.31499
27 Ar 8.96724 8.85365 8.88535
28 Ar -0.0581585 2.3498 2.19006
29 Ar 0.195715 2.41916 6.76913
30 Ar 0.073937 2.13162 11.1989
31 Ar 0.00352798 6.75181 2.2613
32 Ar 0.0794105 6.64966 6.63794
33 Ar 0.133035 6.62978 11.1926
34 Ar -0.0388614 11.217 2.26669
35 Ar 0.00886133 11.0315 6.75756
36 Ar 0.0686865 11.1095 11.0988
37 Ar 4.53283 2.31229 2.17498
38 Ar 4.38268 2.19218 6.80675
39 Ar 4.28947 2.23098 11.1396
40 Ar 4.40445 6.51313 2.14506
41 Ar 4.5289 6.83192 6.60529
42 Ar 4.56102 6.62575 11.2639
43 Ar 4.57205 11.0615 2.22798
44 Ar 4.60829 11.0602 6.79077
45 Ar 4.51538 11.0931 10.8781
46 Ar 8.61379 2.07679 2.29823
47 Ar 8.88627 2.30835 6.71234
48 Ar 8.94056 2.22776 11.0774
49 Ar 8.84397 6.62633 2.19078
50 Ar 8.85846 6.6457 6.48386
51 Ar 8.72464 6.62064 11.1985
52 Ar 8.88007 11.2702 2.17402
53 Ar 8.96086 11.1203 6.53747
54 Ar 9.15043 10.8567 11.1416
55 Ar 2.23951 0.064314 2.08599
56 Ar 2.28678 0.0529684 6.93697
57 Ar 2.25771 0.0228694 11.1388
58 Ar 2.09173 4.43382 2.34461
59 Ar 2.26177 4.45975 6.68402
60 Ar 2.15046 4.51941 11.1858
61 Ar 2.20349 9.03539 2.21412
62 Ar 2.09314 8.81047 6.70383
63 Ar 2.36506 8.87463 10.9083
64 Ar 6.54324 0.120241 2.04856
65 Ar 6.64274 0.00774159 6.59096
66 Ar 6.81854 -0.176191 10.9173
67 Ar 6.69426 4.4421 2.23616
68 Ar 6.63038 4.59187 6.71839
69 Ar 6.59488 4.27869 11.0411
70 Ar 6.6042 8.84477 2.13153
71 Ar 6.86956 8.80976 6.60789
72 Ar 6.58441 8.95906 11.2053
73 Ar 11.3146 0.102062 2.34751
74 Ar 11.1939 0.0412626 6.51983
75 Ar 11.0428 0.04927 11.0569
76 Ar 10.8802 4.49589 2.13149
77 Ar 11.0889 4.35493 6.64893
78 Ar 11.1174 4.47578 11.2724
79 Ar 11.1689 8.84001 2.35931
80 Ar 11.0581 8.81663 6.492
81 Ar 11.3335 8.85695 11.0535
82 Ar 2.24044 2.23007 0.0263136
83 Ar 2.06227 2.27797 4.60049
84 Ar 2.19232 2.23143 9.06237
85 Ar 2.25095 6.81375 -0.102528
86 Ar 2.2652 6.72948 4.34154
87 Ar 2.20758 6.69225 8.93976
88 Ar 2.23196 11.0941 -0.152414
89 Ar 2.49461 11.1163 4.57477
90 Ar 2.18057 10.9786 8.90977
91 Ar 6.5435 2.29741 -0.151791
92 Ar 6.51069 2.2994 4.62618
93 Ar 6.70713 2.22063 8.79358
94 Ar 6.60198 6.68827 0.0404533
95 Ar 6.62698 6.76189 4.53496
96 Ar 6.64677 6.76769 8.94375
97 Ar 6.98211 11.0633 -0.185807
98 Ar 6.59826 11.3273 4.47284
99 Ar 6.93837 11.0339 8.8488
100 Ar 10.9857 2.27274 -0.00290951
101 Ar 11.0795 2.16793 4.471
102 Ar 11.0545 2.13778 8.83234
103 Ar 11.2114 6.52988 0.0266743
104 Ar 11.1348 6.57371 4.60176
105 Ar 11.1641 6.67567 8.79757
106 Ar 11.1091 11.1578 -0.00155887
107 Ar 11.0954 11.1941 4.42511
108 Ar 11.0112 11.0651 8.80256
ITEM: TIMESTEP
66080
ITEM: NUMBER OF ATOMS
108
ITEM: BOX BOUNDS pp pp pp
0.0000000000000000e+00 1.3349999400000000e+01
0.0000000000000000e+00 1.3349999400000000e+01
0.0000000000000000e+00 1.3349999400000000e+01
ITEM: ATOMS id element xu yu zu
1 Ar -0.208925 0.0936021 0.0335653
2 Ar 0.265609 -0.213185 4.57848
3 Ar -0.0464635 -0.0780208 8.88404
4 Ar 0.0394701 4.47864 0.139359
5 Ar -0.16202 4.48944 4.45235
6 Ar -0.116458 4.53811 9.00906
7 Ar 0.0475635 8.81892 0.113577
8 Ar -0.025187 8.81311 4.50553
9 Ar -0.178178 8.6931 8.85689
10 Ar 4.59288 0.0185255 -0.155891
11 Ar 4.35133 0.0293804 4.46937
12 Ar 4.48372 0.223991 8.95415
13 Ar 4.26238 4.38119 -0.115451
14 Ar 4.38441 4.47785 4.49958
15 Ar 4.34563 4.49525 8.99404
16 Ar 4.61095 9.06634 0.0795346
17 Ar 4.5438 8.91608 4.53922
18 Ar 4.61674 8.90454 8.85689
19 Ar 8.97961 0.0415015 0.193878
20 Ar 8.82592 0.0843114 4.57972
21 Ar 8.89252 0.119308 8.6232
22 Ar 8.8172 4.41147 -0.00224796
23 Ar 8.77482 4.32166 4.36654
24 Ar 8.87531 4.58377 8.94869
25 Ar 8.90876 8.6894 0.221348
26 Ar 8.88821 8.9242 4.30124
27 Ar 8.96977 8.84026 8.88234
28 Ar -0.0623545 2.34449 2.19912
29 Ar 0.200174 2.4099 6.77565
30 Ar 0.0567544 2.13995 11.2132
31 Ar 0.0179583 6.74242 2.26157
32 Ar 0.076927 6.63778 6.63849
33 Ar 0.134305 6.61511 11.2071
34 Ar -0.0675214 11.2116 2.26504
35 Ar 0.0257965 11.0289 6.76107
36 Ar 0.0513667 11.1066 11.1087
37 Ar 4.53686 2.33856 2.16212
38 Ar 4.37981 2.20459 6.8205
39 Ar 4.29135 2.24294 11.1314
40 Ar 4.40146 6.50712 2.14076