ITEM: TIMESTEP
14000
ITEM: NUMBER OF ATOMS
108
ITEM: BOX BOUNDS pp pp pp
0.0000000000000000e+00 1.3349999400000000e+01
0.0000000000000000e+00 1.3349999400000000e+01
0.0000000000000000e+00 1.3349999400000000e+01
ITEM: ATOMS id element xu yu zu
1 Ar 0.0535516 -0.122606 -0.177565
2 Ar 0.043301 0.0457234 4.5116
3 Ar -0.0234458 0.380381 8.99364
4 Ar -0.149916 4.54601 0.0969679
5 Ar 0.0639496 4.43632 4.32371
6 Ar 0.118713 4.54103 8.8597
7 Ar -0.0165551 8.79912 -0.243739
8 Ar 0.156234 8.96153 4.39568
9 Ar -0.0132531 8.90534 9.06928
10 Ar 4.40134 -0.0702424 0.0716932
11 Ar 4.38841 -0.0333754 4.54144
12 Ar 4.49214 -0.0172874 9.01039
13 Ar 4.2722 4.62841 -0.170531
14 Ar 4.34618 4.35655 4.3725
15 Ar 4.61401 4.59044 8.81429
16 Ar 4.45631 9.02306 0.171725
17 Ar 4.48316 8.91208 4.59719
18 Ar 4.6539 8.9005 8.90684
19 Ar 8.88173 -0.0214276 0.264556
20 Ar 8.80316 -0.148625 4.52627
21 Ar 8.66948 -0.251266 8.69189
22 Ar 8.87503 4.38569 -0.0405114
23 Ar 8.71233 4.29518 4.33987
24 Ar 8.98986 4.48815 8.88518
25 Ar 8.7619 8.93215 0.10868
26 Ar 8.99581 8.89016 4.34602
27 Ar 8.91545 8.84614 8.99535
28 Ar -0.0229163 2.19752 2.20431
29 Ar 0.230655 2.29434 6.74744
30 Ar -0.0211587 2.34073 11.1168
31 Ar -0.114438 6.5485 2.26641
32 Ar -0.102311 6.81357 6.51847
33 Ar 0.0734184 6.62849 10.9976
34 Ar -0.018097 11.2326 2.21302
35 Ar -0.0258652 11.3445 6.78511
36 Ar 0.0178035 11.1075 11.0239
37 Ar 4.5077 2.1138 1.97197
38 Ar 4.51333 2.14523 6.73525
39 Ar 4.51479 2.35839 11.2624
40 Ar 4.43467 6.81839 2.21
41 Ar 4.64802 6.69743 6.62029
42 Ar 4.38463 6.54876 10.9917
43 Ar 4.51371 11.2298 2.38065
44 Ar 4.45616 11.0623 6.82365
45 Ar 4.70792 11.0132 11.1223
46 Ar 8.96172 2.1214 2.23336
47 Ar 8.83279 2.25136 6.62047
48 Ar 8.84416 2.20057 11.0798
49 Ar 8.96686 6.64622 2.0714
50 Ar 8.94119 6.64281 6.47279
51 Ar 9.02891 6.54852 11.1689
52 Ar 8.74197 11.2015 2.29923
53 Ar 8.99549 10.9404 6.65498
54 Ar 8.70112 11.1595 11.3582
55 Ar 2.14837 -0.0477046 2.16876
56 Ar 2.29074 -0.0866815 6.80651
57 Ar 2.37115 0.0447593 11.0143
58 Ar 2.25135 4.33582 2.26481
59 Ar 2.18535 4.43611 6.41845
60 Ar 2.12238 4.37972 11.1927
61 Ar 1.95009 9.04407 2.11152
62 Ar 2.17629 8.74162 6.83631
63 Ar 2.29537 8.85186 11.0992
64 Ar 6.6263 0.0713256 2.41257
65 Ar 6.57561 -0.170584 6.75176
66 Ar 6.68421 0.082687 11.1386
67 Ar 6.50258 4.52513 2.16345
68 Ar 6.66909 4.51117 6.64376
69 Ar 6.76512 4.42326 11.2309
70 Ar 6.81981 8.94872 2.44126
71 Ar 6.65671 8.91933 6.693
72 Ar 6.65809 8.80146 11.3026
73 Ar 11.0704 0.00390636 2.32853
74 Ar 10.9781 0.142434 6.79166
75 Ar 10.9551 0.0679704 10.9351
76 Ar 10.9876 4.34696 2.14681
77 Ar 11.2847 4.32562 6.54972
78 Ar 11.212 4.49787 11.0111
79 Ar 11.2315 9.04161 2.07317
80 Ar 11.0989 8.7871 6.58873
81 Ar 10.902 8.9505 11.1141
82 Ar 2.12588 2.19394 -0.0233035
83 Ar 2.15777 2.16149 4.3075
84 Ar 2.37321 2.57654 8.83423
85 Ar 2.10022 6.66373 0.164731
86 Ar 2.20235 6.69604 4.34126
87 Ar 2.24888 6.64715 8.81945
88 Ar 2.27809 11.2028 -0.129124
89 Ar 2.28426 11.1263 4.70509
90 Ar 2.36648 10.9786 8.94333
91 Ar 6.58049 2.30746 0.132963
92 Ar 6.61972 2.23104 4.4701
93 Ar 6.63541 2.33825 8.92908
94 Ar 6.66372 6.64458 0.100275
95 Ar 6.71018 6.64251 4.33893
96 Ar 6.79362 6.59551 9.00074
97 Ar 6.44086 11.1229 0.0453044
98 Ar 6.58153 11.1057 4.60895
99 Ar 6.84969 10.8388 8.90258
100 Ar 11.0362 2.047 -0.0854058
101 Ar 11.3763 2.18536 4.50991
102 Ar 11.0883 2.32044 8.88369
103 Ar 11.2452 6.8676 -0.0564646
104 Ar 11.2634 6.73065 4.33324
105 Ar 11.1473 6.86142 8.82131
106 Ar 11.0926 11.0476 0.0297278
107 Ar 11.2286 11.1058 4.4817
108 Ar 11.1336 11.1281 8.89802
ITEM: TIMESTEP
14010
ITEM: NUMBER OF ATOMS
108
ITEM: BOX BOUNDS pp pp pp
0.0000000000000000e+00 1.3349999400000000e+01
0.0000000000000000e+00 1.3349999400000000e+01
0.0000000000000000e+00 1.3349999400000000e+01
ITEM: ATOMS id element xu yu zu
1 Ar 0.0469356 -0.117549 -0.171997
2 Ar 0.0502118 0.0397619 4.51244
3 Ar -0.00459386 0.380494 8.97793
4 Ar -0.146443 4.55361 0.084143
5 Ar 0.0496905 4.44437 4.33103
6 Ar 0.103072 4.52584 8.88587
7 Ar 0.00408649 8.79737 -0.262535
8 Ar 0.158396 8.95226 4.39133
9 Ar 0.00486025 8.9143 9.07158
10 Ar 4.41383 -0.0766811 0.0762769
11 Ar 4.37639 0.0010356 4.54529
12 Ar 4.47062 -0.0360962 8.99582
13 Ar 4.26396 4.63626 -0.152813
14 Ar 4.34349 4.35328 4.38326
15 Ar 4.61392 4.57693 8.83155
16 Ar 4.43647 9.02085 0.162844
17 Ar 4.47363 8.92218 4.59035
18 Ar 4.64806 8.89031 8.91181
19 Ar 8.89892 -0.040423 0.237633
20 Ar 8.80401 -0.173364 4.51019
21 Ar 8.65011 -0.228508 8.70637
22 Ar 8.89029 4.40199 -0.0296231
23 Ar 8.70905 4.30532 4.34485
24 Ar 9.00192 4.4911 8.88448
25 Ar 8.76557 8.91483 0.112984
26 Ar 8.98513 8.8886 4.35021
27 Ar 8.92092 8.83074 8.97907
28 Ar -0.0136284 2.20648 2.21006
29 Ar 0.251715 2.29262 6.74568
30 Ar -0.00877455 2.32896 11.1172
31 Ar -0.100681 6.56723 2.26662
32 Ar -0.0933312 6.80563 6.51951
33 Ar 0.0768035 6.62008 10.9914
34 Ar -0.0241136 11.2302 2.22906
35 Ar -0.03812 11.3494 6.77248
36 Ar 0.0133299 11.1174 11.0079
37 Ar 4.49245 2.11718 1.97937
38 Ar 4.51171 2.13053 6.74067
39 Ar 4.51833 2.38616 11.2671
40 Ar 4.42469 6.83326 2.18987
41 Ar 4.65427 6.7104 6.60877
42 Ar 4.37263 6.56041 10.9987
43 Ar 4.5176 11.2337 2.38929
44 Ar 4.45852 11.0641 6.8322
45 Ar 4.7177 11.001 11.1265
46 Ar 8.96119 2.11266 2.23702
47 Ar 8.86381 2.25986 6.61188
48 Ar 8.84609 2.19695 11.0804
49 Ar 8.95746 6.65693 2.07413
50 Ar 8.93293 6.64657 6.4631
51 Ar 9.0547 6.54406 11.1623
52 Ar 8.72345 11.2166 2.32317
53 Ar 8.9853 10.9325 6.65705
54 Ar 8.70117 11.1607 11.3462
55 Ar 2.1574 -0.0562289 2.19106
56 Ar 2.28143 -0.105194 6.80648
57 Ar 2.36185 0.0275383 10.9895
58 Ar 2.24382 4.32347 2.2627
59 Ar 2.20135 4.42597 6.45144
60 Ar 2.10386 4.35642 11.1851
61 Ar 1.96258 9.03809 2.09731
62 Ar 2.17691 8.70487 6.85573
63 Ar 2.28292 8.85923 11.111
64 Ar 6.63274 0.0556445 2.41008
65 Ar 6.57966 -0.164668 6.73416
66 Ar 6.6681 0.0905806 11.1595
67 Ar 6.47196 4.54175 2.17079
68 Ar 6.6722 4.49448 6.62188
69 Ar 6.76244 4.40473 11.2125
70 Ar 6.83473 8.97203 2.44305
71 Ar 6.67283 8.8996 6.68742
72 Ar 6.63148 8.80395 11.308
73 Ar 11.0644 0.0145554 2.31174
74 Ar 10.9863 0.15451 6.81451
75 Ar 10.9412 0.0866503 10.9416
76 Ar 10.9822 4.33287 2.14442
77 Ar 11.2931 4.34483 6.54113
78 Ar 11.2232 4.50516 11.0113
79 Ar 11.2406 9.02617 2.08273
80 Ar 11.1028 8.77828 6.57253
81 Ar 10.9068 8.95883 11.1093
82 Ar 2.12633 2.2 -0.0127738
83 Ar 2.16042 2.16834 4.32467
84 Ar 2.39407 2.58802 8.82696
85 Ar 2.11133 6.67068 0.165186
86 Ar 2.19562 6.70337 4.34294
87 Ar 2.26251 6.654 8.82645
88 Ar 2.28961 11.207 -0.13792
89 Ar 2.29601 11.119 4.69817
90 Ar 2.35363 10.9937 8.93541
91 Ar 6.57709 2.33238 0.117863
92 Ar 6.63908 2.2203 4.4704
93 Ar 6.63896 2.35518 8.93187
94 Ar 6.67468 6.6389 0.126279
95 Ar 6.69692 6.64464 4.34212
96 Ar 6.77523 6.60143 9.01582
97 Ar 6.42644 11.127 0.0422542
98 Ar 6.56953 11.1124 4.58573
99 Ar 6.84093 10.8249 8.90651
100 Ar 11.0359 2.04053 -0.0796677
101 Ar 11.3625 2.17935 4.52464
102 Ar 11.0964 2.32811 8.87828
103 Ar 11.2605 6.85963 -0.0637397
104 Ar 11.2539 6.72819 4.34884
105 Ar 11.1719 6.86885 8.82539
106 Ar 11.0838 11.0568 0.0397643
107 Ar 11.2066 11.0655 4.46676
108 Ar 11.1214 11.1372 8.86661
ITEM: TIMESTEP
14020
ITEM: NUMBER OF ATOMS
108
ITEM: BOX BOUNDS pp pp pp
0.0000000000000000e+00 1.3349999400000000e+01
0.0000000000000000e+00 1.3349999400000000e+01
0.0000000000000000e+00 1.3349999400000000e+01
ITEM: ATOMS id element xu yu zu
1 Ar 0.0383635 -0.110857 -0.165902
2 Ar 0.0569545 0.0321474 4.51351
3 Ar 0.0156484 0.375737 8.96156
4 Ar -0.141972 4.5586 0.0699111
5 Ar 0.0343903 4.45224 4.33919
6 Ar 0.0853438 4.51072 8.90961
7 Ar 0.0254469 8.79932 -0.279907
8 Ar 0.158429 8.94406 4.38855
9 Ar 0.0225349 8.92352 9.07072
10 Ar 4.42661 -0.0818445 0.0782853
11 Ar 4.36435 0.0365414 4.54853
12 Ar 4.45083 -0.054217 8.98073
13 Ar 4.25764 4.64266 -0.131453
14 Ar 4.343 4.35069 4.39447
15 Ar 4.61178 4.56223 8.84868
16 Ar 4.41537 9.01601 0.153212
17 Ar 4.46213 8.93178 4.58114
18 Ar 4.63944 8.87743 8.91744
19 Ar 8.91383 -0.0597574 0.20662
20 Ar 8.8068 -0.195327 4.49603
21 Ar 8.63336 -0.202473 8.72453
22 Ar 8.90674 4.41785 -0.0181617
23 Ar 8.7094 4.31759 4.34949
24 Ar 9.01337 4.49433 8.88216
25 Ar 8.77053 8.89806 0.116476
26 Ar 8.97523 8.88674 4.35524
27 Ar 8.926 8.81449 8.96147
28 Ar -0.00553056 2.21457 2.21369
29 Ar 0.270116 2.2894 6.74244
30 Ar 0.00284128 2.31611 11.1192
31 Ar -0.0856096 6.58811 2.26554
32 Ar -0.0821031 6.79453 6.52281
33 Ar 0.0797218 6.61224 10.9869
34 Ar -0.0299645 11.2281 2.24455
35 Ar -0.0506598 11.3516 6.76067
36 Ar 0.00817779 11.1292 10.9924
37 Ar 4.47373 2.12271 1.99168
38 Ar 4.50942 2.11723 6.7449
39 Ar 4.52034 2.41166 11.2698
40 Ar 4.41379 6.84766 2.17136
41 Ar 4.65742 6.72213 6.59776
42 Ar 4.36125 6.57462 11.0079
43 Ar 4.51888 11.2353 2.3975
44 Ar 4.46094 11.0657 6.84011
45 Ar 4.72312 10.9911 11.1287
46 Ar 8.9587 2.1057 2.24218
47 Ar 8.89426 2.26808 6.60411
48 Ar 8.84828 2.19361 11.0813
49 Ar 8.94904 6.66711 2.07933
50 Ar 8.92465 6.64935 6.45532
51 Ar 9.07833 6.54143 11.1564
52 Ar 8.70745 11.23 2.34594
53 Ar 8.97481 10.9254 6.6583
54 Ar 8.70284 11.1622 11.3326
55 Ar 2.16722 -0.064762 2.21398
56 Ar 2.27192 -0.120814 6.80733
57 Ar 2.35113 0.0110835 10.9659
58 Ar 2.23667 4.31286 2.25816
59 Ar 2.21918 4.41907 6.48622
60 Ar 2.08652 4.33575 11.1776
61 Ar 1.97857 9.03183 2.08358
62 Ar 2.17856 8.67154 6.87233
63 Ar 2.27233 8.86632 11.1235
64 Ar 6.63909 0.0394867 2.40557
65 Ar 6.58382 -0.156663 6.71572
66 Ar 6.6518 0.0982091 11.1809
67 Ar 6.44257 4.55638 2.17885
68 Ar 6.67592 4.47704 6.60008
69 Ar 6.75891 4.38817 11.1935
70 Ar 6.84526 8.99428 2.44198
71 Ar 6.69162 8.87794 6.68052
72 Ar 6.60637 8.80408 11.3124
73 Ar 11.0606 0.0239323 2.29515
74 Ar 10.9965 0.164626 6.83568
75 Ar 10.9283 0.102571 10.9492
76 Ar 10.9781 4.31955 2.14355
77 Ar 11.2994 4.3665 6.53387
78 Ar 11.2336 4.51177 11.0134
79 Ar 11.2488 9.00881 2.09491
80 Ar 11.1078 8.77291 6.55721
81 Ar 10.9139 8.96812 11.1055
82 Ar 2.1272 2.20569 -0.00232229
83 Ar 2.16527 2.17414 4.34342
84 Ar 2.4153 2.59526 8.82147
85 Ar 2.12318 6.67801 0.163664
86 Ar 2.19043 6.71114 4.34504
87 Ar 2.2766 6.65899 8.83391
88 Ar 2.30032 11.2094 -0.146406
89 Ar 2.30658 11.1108 4.68873
90 Ar 2.33907 11.0098 8.92823
91 Ar 6.57745 2.35557 0.10067
92 Ar 6.65717 2.20879 4.47054
93 Ar 6.64368 2.37015 8.9338
94 Ar 6.68473 6.63435 0.149718
95 Ar 6.68347 6.64701 4.34571
96 Ar 6.75792 6.60882 9.02983
97 Ar 6.41731 11.1323 0.0420797
98 Ar 6.55874 11.119 4.56246
99 Ar 6.83033 10.8147 8.91151
100 Ar 11.0375 2.03609 -0.0737899
101 Ar 11.345 2.17343 4.53855
102 Ar 11.104 2.33615 8.87254
103 Ar 11.2728 6.84871 -0.070768
104 Ar 11.241 6.72431 4.36376
105 Ar 11.1963 6.87243 8.82974
106 Ar 11.0753 11.0686 0.0478195
107 Ar 11.1844 11.0265 4.45211
108 Ar 11.1087 11.1461 8.83586
ITEM: TIMESTEP
14030
ITEM: NUMBER OF ATOMS
108
ITEM: BOX BOUNDS pp pp pp
0.0000000000000000e+00 1.3349999400000000e+01
0.0000000000000000e+00 1.3349999400000000e+01
0.0000000000000000e+00 1.3349999400000000e+01
ITEM: ATOMS id element xu yu zu
1 Ar 0.0281974 -0.102809 -0.159233
2 Ar 0.0631586 0.0231179 4.5147
3 Ar 0.0367805 0.366359 8.94486
4 Ar -0.136488 4.56097 0.0547453
5 Ar 0.0185782 4.45981 4.34804
6 Ar 0.0660287 4.49573 8.93033
7 Ar 0.0467625 8.80503 -0.295498
8 Ar 0.156567 8.93706 4.3874
9 Ar 0.0394432 8.93289 9.06674
10 Ar 4.43922 -0.0852426 0.0778302
11 Ar 4.35252 0.0724474 4.55098
12 Ar 4.43347 -0.0713051 8.96544
13 Ar 4.25322 4.64761 -0.107077
14 Ar 4.34448 4.34883 4.40604
15 Ar 4.60791 4.54703 8.86528
16 Ar 4.39353 9.00884 0.142867
17 Ar 4.44895 8.94073 4.56978
18 Ar 4.62805 8.86224 8.92343
19 Ar 8.92611 -0.0790207 0.17219
20 Ar 8.81181 -0.213967 4.48451
21 Ar 8.61906 -0.173635 8.74593
22 Ar 8.92393 4.43306 -0.0065191
23 Ar 8.71334 4.33188 4.3534
24 Ar 9.02403 4.49802 8.87817
25 Ar 8.7768 8.88234 0.11882
26 Ar 8.96606 8.88446 4.36105
27 Ar 8.93063 8.79753 8.94285
28 Ar 0.00119103 2.22162 2.21546
29 Ar 0.285499 2.2849 6.73777
30 Ar 0.0133015 2.3019 11.1227
31 Ar -0.06964 6.61059 2.26327
32 Ar -0.0688102 6.78038 6.52838
33 Ar 0.0823875 6.60531 10.9843
34 Ar -0.0354656 11.2264 2.25923
35 Ar -0.0633914 11.3507 6.74952
36 Ar 0.00212286 11.143 10.9779
37 Ar 4.45244 2.13005 2.0084
38 Ar 4.50669 2.10555 6.74799
39 Ar 4.52043 2.43435 11.2705
40 Ar 4.40213 6.86151 2.15502
41 Ar 4.6575 6.73214 6.58758
42 Ar 4.35052 6.59084 11.0193
43 Ar 4.51738 11.2346 2.40501
44 Ar 4.46359 11.0669 6.84711
45 Ar 4.72382 10.9837 11.1285
46 Ar 8.95402 2.10042 2.24852
47 Ar 8.92373 2.27596 6.59723
48 Ar 8.85067 2.19082 11.0824
49 Ar 8.94194 6.67651 2.08727
50 Ar 8.91643 6.651 6.44977
51 Ar 9.09932 6.54071 11.1511
52 Ar 8.69455 11.2413 2.36659
53 Ar 8.96395 10.9196 6.65883
54 Ar 8.70596 11.1637 11.3174
55 Ar 2.17761 -0.0732311 2.23708
56 Ar 2.26235 -0.133421 6.80875
57 Ar 2.33924 -0.00419818 10.944
58 Ar 2.22989 4.30436 2.2516
59 Ar 2.23856 4.41587 6.5221
60 Ar 2.071 4.31823 11.1704
61 Ar 1.9976 9.02571 2.07073
62 Ar 2.18133 8.64254 6.88557
63 Ar 2.26388 8.87323 11.1361
64 Ar 6.64496 0.0236155 2.39879
65 Ar 6.58824 -0.146788 6.69673
66 Ar 6.63532 0.105569 11.2024
67 Ar 6.41474 4.56855 2.18775
68 Ar 6.6799 4.45918 6.57897
69 Ar 6.755 4.37435 11.1745
70 Ar 6.851 9.01491 2.43791
71 Ar 6.7125 8.85499 6.6724
72 Ar 6.58347 8.80155 11.3161
73 Ar 11.0593 0.0318312 2.2792
74 Ar 11.0085 0.172509 6.85485
75 Ar 10.9167 0.115368 10.9575
76 Ar 10.9756 4.30729 2.14432
77 Ar 11.3037 4.39029 6.52819
78 Ar 11.2431 4.51728 11.0174
79 Ar 11.256 8.98974 2.10905
80 Ar 11.1138 8.77087 6.54317
81 Ar 10.9231 8.97845 11.1026
82 Ar 2.12856 2.21062 0.00780542
83 Ar 2.172 2.17908 4.36352
84 Ar 2.43641 2.59783 8.81801
85 Ar 2.13543 6.68542 0.159973
86 Ar 2.18703 6.7189 4.34755
87 Ar 2.29083 6.66148 8.84221
88 Ar 2.30991 11.2104 -0.154418
89 Ar 2.31585 11.1017 4.6771
90 Ar 2.32299 11.0265 8.92177
91 Ar 6.58131 2.37685 0.082333
92 Ar 6.67389 2.19658 4.4704
93 Ar 6.64956 2.38269 8.9346
94 Ar 6.69371 6.63106 0.169907
95 Ar 6.66987 6.64981 4.34938
96 Ar 6.74194 6.61731 9.0426
97 Ar 6.4138 11.1383 0.0448423
98 Ar 6.549 11.1252 4.54006
99 Ar 6.8183 10.8082 8.91731
100 Ar 11.0413 2.03395 -0.0678559
101 Ar 11.3245 2.16752 4.55139
102 Ar 11.111 2.34449 8.86669
103 Ar 11.2818 6.83531 -0.0773467
104 Ar 11.2248 6.71894 4.37745
105 Ar 11.2203 6.87228 8.83417
106 Ar 11.0674 11.0824 0.0540516
107 Ar 11.162 10.9895 4.43785
108 Ar 11.0956 11.1547 8.80635
ITEM: TIMESTEP
14040
ITEM: NUMBER OF ATOMS
108
ITEM: BOX BOUNDS pp pp pp
0.0000000000000000e+00 1.3349999400000000e+01
0.0000000000000000e+00 1.3349999400000000e+01
0.0000000000000000e+00 1.3349999400000000e+01
ITEM: ATOMS id element xu yu zu
1 Ar 0.0168276 -0.0937053 -0.151938
2 Ar 0.0684954 0.0129711 4.51591
3 Ar 0.0582681 0.352711 8.92813
4 Ar -0.129975 4.56074 0.0391412
5 Ar 0.00278193 4.46698 4.35732
6 Ar 0.0456752 4.48089 8.94748
7 Ar 0.0672199 8.81441 -0.308927
8 Ar 0.153058 8.93134 4.3879
9 Ar 0.0552852 8.94229 9.0597
10 Ar 4.45121 -0.086435 0.0751288
11 Ar 4.34118 0.107989 4.55246
12 Ar 4.41911 -0.0870377 8.95023
13 Ar 4.25066 4.65107 -0.0803712
14 Ar 4.34766 4.34773 4.41789
15 Ar 4.60268 4.53207 8.88105
16 Ar 4.37158 8.99972 0.13179
17 Ar 4.43444 8.94884 4.55652
18 Ar 4.614 8.84524 8.92946
19 Ar 8.93549 -0.0977514 0.135117
20 Ar 8.81925 -0.228771 4.47629
21 Ar 8.60705 -0.142488 8.77005
22 Ar 8.94144 4.44743 0.00493373
23 Ar 8.72075 4.348 4.35626
24 Ar 9.03375 4.5023 8.87253
25 Ar 8.78438 8.86808 0.119728
26 Ar 8.95751 8.88166 4.36752
27 Ar 8.93485 8.78005 8.92356
28 Ar 0.0064039 2.22747 2.21569
29 Ar 0.297588 2.27943 6.73174
30 Ar 0.022269 2.28605 11.1276
31 Ar -0.0531497 6.6341 2.25993
32 Ar -0.0536944 6.76334 6.53613
33 Ar 0.0850108 6.59962 10.9834
34 Ar -0.0404508 11.2248 2.27285
35 Ar -0.0761905 11.3466 6.73887
36 Ar -0.00503673 11.1587 10.9646
37 Ar 4.42951 2.13883 2.02895
38 Ar 4.50375 2.09567 6.75001
39 Ar 4.51829 2.45375 11.2692
40 Ar 4.38993 6.87472 2.14139
41 Ar 4.65459 6.74004 6.57852
42 Ar 4.3405 6.60844 11.0333
43 Ar 4.51297 11.2317 2.41153
44 Ar 4.4666 11.0673 6.85292
45 Ar 4.7196 10.9791 11.126
46 Ar 8.94702 2.09671 2.25569
47 Ar 8.95183 2.28344 6.59129
48 Ar 8.8532 2.18892 11.0838
49 Ar 8.93643 6.6849 2.09813
50 Ar 8.90835 6.65137 6.44669
51 Ar 9.11726 6.54197 11.1464
52 Ar 8.68529 11.2503 2.38418
53 Ar 8.95265 10.9154 6.65872
54 Ar 8.71032 11.1649 11.3006
55 Ar 2.18837 -0.0815571 2.2599
56 Ar 2.25285 -0.142984 6.81038
57 Ar 2.32646 -0.0179415 10.9244
58 Ar 2.22342 4.29833 2.24354
59 Ar 2.25917 4.41671 6.55839
60 Ar 2.05787 4.30426 11.1641
61 Ar 2.01909 9.02014 2.05916
62 Ar 2.18531 8.61863 6.89498
63 Ar 2.25779 8.88006 11.1483
64 Ar 6.64998 0.00875632 2.38962
65 Ar 6.59309 -0.135289 6.67749
66 Ar 6.61869 0.112644 11.2237
67 Ar 6.3888 4.57789 2.19755
68 Ar 6.68383 4.44121 6.55914
69 Ar 6.75119 4.36398 11.1559
70 Ar 6.85168 9.0334 2.43078
71 Ar 6.73483 8.83136 6.6632
72 Ar 6.56339 8.79627 11.3192
73 Ar 11.0605 0.0381121 2.26424
74 Ar 11.022 0.177976 6.87174
75 Ar 10.9071 0.124771 10.9661
76 Ar 10.975 4.29638 2.14685
77 Ar 11.3058 4.41579 6.52435
78 Ar 11.2513 4.52131 11.0234
79 Ar 11.2622 8.9692 2.12446
80 Ar 11.1209 8.77196 6.53081
81 Ar 10.9343 8.98983 11.1006
82 Ar 2.13046 2.21442 0.0173635
83 Ar 2.18018 2.18341 4.38469
84 Ar 2.45681 2.5953 8.81683
85 Ar 2.14768 6.6926 0.153936
86 Ar 2.18559 6.72623 4.35046
87 Ar 2.30487 6.66095 8.85169
88 Ar 2.31805 11.2103 -0.161789
89 Ar 2.32365 11.0918 4.66362
90 Ar 2.30561 11.0429 8.91596
91 Ar 6.58834 2.39608 0.0637981
92 Ar 6.68924 2.18379 4.46986
93 Ar 6.65655 2.3924 8.93403
94 Ar 6.70144 6.62911 0.186315
95 Ar 6.65618 6.65315 4.35278
96 Ar 6.72749 6.62654 9.05397
97 Ar 6.41601 11.1445 0.0504341
98 Ar 6.54017 11.131 4.51944
99 Ar 6.80522 10.8053 8.9236
100 Ar 11.0469 2.03434 -0.0619366
101 Ar 11.3014 2.16155 4.56293
102 Ar 11.1178 2.35303 8.86096
103 Ar 11.288 6.81997 -0.0832729
104 Ar 11.206 6.71203 4.38943
105 Ar 11.2435 6.86865 8.83847
106 Ar 11.0603 11.0976 0.0586651
107 Ar 11.1399 10.9551 4.42411
108 Ar 11.0821 11.1629 8.77866
ITEM: TIMESTEP
14050
ITEM: NUMBER OF ATOMS
108
ITEM: BOX BOUNDS pp pp pp
0.0000000000000000e+00 1.3349999400000000e+01
0.0000000000000000e+00 1.3349999400000000e+01
0.0000000000000000e+00 1.3349999400000000e+01
ITEM: ATOMS id element xu yu zu
1 Ar 0.00465735 -0.083856 -0.143967
2 Ar 0.0726836 0.00203961 4.51705
3 Ar 0.0795561 0.335224 8.91167
4 Ar -0.12242 4.55797 0.0235967
5 Ar -0.0124956 4.47362 4.36675
6 Ar 0.0248675 4.46618 8.96065
7 Ar 0.0860074 8.82732 -0.319805
8 Ar 0.148155 8.92691 4.39006
9 Ar 0.0697934 8.95156 9.04977
10 Ar 4.46213 -0.0850681 0.0704814
11 Ar 4.33064 0.142353 4.5528
12 Ar 4.40823 -0.101122 8.9354
13 Ar 4.24995 4.65296 -0.0520532
14 Ar 4.35222 4.34744 4.42994
15 Ar 4.5965 4.51805 8.89573
16 Ar 4.3502 8.9891 0.119915
17 Ar 4.41898 8.9559 4.54168
18 Ar 4.59746 8.82695 8.93521
19 Ar 8.94177 -0.115445 0.0962518
20 Ar 8.82925 -0.239306 4.47186
21 Ar 8.59713 -0.109538 8.79632
22 Ar 8.95887 4.46085 0.0158683
23 Ar 8.73143 4.36572 4.35781
24 Ar 9.04239 4.50729 8.86528
25 Ar 8.7933 8.85563 0.118982
26 Ar 8.94935 8.87823 4.37445
27 Ar 8.93868 8.76226 8.90392
28 Ar 0.0100357 2.23198 2.21474
29 Ar 0.306191 2.27332 6.7245
30 Ar 0.029482 2.26835 11.1336
31 Ar -0.0364622 6.65806 2.25559
32 Ar -0.0370265 6.7437 6.5459
33 Ar 0.0877819 6.59551 10.9843
34 Ar -0.0447789 11.2233 2.28517
35 Ar -0.0889016 11.3391 6.72856
36 Ar -0.0134744 11.1764 10.9525
37 Ar 4.40585 2.14866 2.05267
38 Ar 4.50084 2.0878 6.75108
39 Ar 4.51372 2.46953 11.2662
40 Ar 4.37743 6.88714 2.13093
41 Ar 4.64885 6.74556 6.5708
42 Ar 4.33127 6.62675 11.05
43 Ar 4.5056 11.2268 2.41669
44 Ar 4.47004 11.0667 6.8573
45 Ar 4.71049 10.9775 11.1211
46 Ar 8.93768 2.09442 2.26332
47 Ar 8.97815 2.29048 6.5864
48 Ar 8.85579 2.18818 11.0857
49 Ar 8.93264 6.69211 2.112
50 Ar 8.90055 6.65033 6.4463
51 Ar 9.13183 6.54523 11.1422
52 Ar 8.68013 11.2564 2.3979
53 Ar 8.94081 10.9131 6.65808
54 Ar 8.71571 11.1655 11.2822
55 Ar 2.19924 -0.0896499 2.282
56 Ar 2.24361 -0.149559 6.81178
57 Ar 2.3131 -0.029824 10.9077
58 Ar 2.21716 4.29507 2.23453
59 Ar 2.28067 4.42174 6.59449
60 Ar 2.04756 4.29412 11.1587
61 Ar 2.04246 9.01549 2.04927
62 Ar 2.19051 8.60039 6.90025
63 Ar 2.25421 8.88689 11.1594
64 Ar 6.65384 -0.00444585 2.37797
65 Ar 6.59855 -0.122436 6.65836
66 Ar 6.60197 0.119404 11.2442
67 Ar 6.36509 4.58413 2.20828
68 Ar 6.68745 4.42342 6.54105
69 Ar 6.74788 4.35768 11.1382
70 Ar 6.84721 9.04929 2.42059
71 Ar 6.75789 8.80765 6.65314
72 Ar 6.54662 8.78831 11.3219
73 Ar 11.0643 0.0427064 2.25053
74 Ar 11.0367 0.180934 6.88615
75 Ar 10.8997 0.130609 10.9744
76 Ar 10.9764 4.28701 2.15118
77 Ar 11.3058 4.44251 6.52253
78 Ar 11.2581 4.52352 11.0314
79 Ar 11.2673 8.94746 2.14041
80 Ar 11.1291 8.77586 6.52053
81 Ar 10.9474 9.0022 11.0994
82 Ar 2.13295 2.21679 0.0261151
83 Ar 2.18936 2.18745 4.40661
84 Ar 2.47588 2.58732 8.81814
85 Ar 2.15952 6.69926 0.145409
86 Ar 2.18621 6.73277 4.35373
87 Ar 2.31841 6.65703 8.86259
88 Ar 2.32449 11.2097 -0.168352
89 Ar 2.32983 11.0815 4.6487
90 Ar 2.28716 11.0586 8.91069
91 Ar 6.59813 2.41317 0.045943
92 Ar 6.70326 2.17061 4.46883
93 Ar 6.66459 2.39901 8.93186
94 Ar 6.70784 6.62849 0.198588
95 Ar 6.64247 6.65713 4.35562
96 Ar 6.71469 6.63612 9.06382
97 Ar 6.4238 11.1504 0.0585733
98 Ar 6.53211 11.1364 4.50137
99 Ar 6.79145 10.806 8.93007
100 Ar 11.0543 2.03741 -0.0560932
101 Ar 11.2764 2.15549 4.57291
102 Ar 11.1244 2.36158 8.85558
103 Ar 11.2914 6.80322 -0.0883482
104 Ar 11.1851 6.70364 4.39934
105 Ar 11.266 6.86183 8.84248
106 Ar 11.0541 11.1133 0.0618845
107 Ar 11.1184 10.924 4.41096
108 Ar 11.0684 11.1704 8.75332
ITEM: TIMESTEP
14060
ITEM: NUMBER OF ATOMS
108
ITEM: BOX BOUNDS pp pp pp
0.0000000000000000e+00 1.3349999400000000e+01
0.0000000000000000e+00 1.3349999400000000e+01
0.0000000000000000e+00 1.3349999400000000e+01
ITEM: ATOMS id element xu yu zu
1 Ar -0.00791068 -0.0735765 -0.135268
2 Ar 0.0754919 -0.00933157 4.51804
3 Ar 0.10008 0.314394 8.89574
4 Ar -0.11382 4.55279 0.00859334
5 Ar -0.0267956 4.47963 4.37602
6 Ar 0.00421287 4.45161 8.96958
7 Ar 0.102368 8.84354 -0.327762
8 Ar 0.142112 8.92374 4.39387
9 Ar 0.0827345 8.96055 9.03717
10 Ar 4.47159 -0.0809048 0.0642487
11 Ar 4.3212 0.174697 4.55189
12 Ar 4.40119 -0.113304 8.92123
13 Ar 4.25106 4.65321 -0.0228467
14 Ar 4.35784 4.34797 4.44215
15 Ar 4.58978 4.5056 8.90916
16 Ar 4.33011 8.97749 0.107149
17 Ar 4.40301 8.96171 4.52561
18 Ar 4.5787 8.80797 8.94041
19 Ar 8.94484 -0.131572 0.0564808
20 Ar 8.84186 -0.245266 4.47155
21 Ar 8.58914 -0.0752986 8.82415
22 Ar 8.97586 4.47321 0.026015
23 Ar 8.74513 4.38478 4.35788
24 Ar 9.04981 4.51308 8.85657
25 Ar 8.80357 8.84526 0.116448
26 Ar 8.94133 8.87409 4.38162
27 Ar 8.94222 8.74441 8.88427
28 Ar 0.0120784 2.23506 2.213
29 Ar 0.311196 2.26696 6.71622
30 Ar 0.0347737 2.24871 11.1405
31 Ar -0.0198374 6.68192 2.25035
32 Ar -0.0190766 6.72182 6.55752
33 Ar 0.0908532 6.59324 10.9868
34 Ar -0.0483372 11.2216 2.29596
35 Ar -0.101341 11.3281 6.71842
36 Ar -0.0233288 11.1957 10.9419
37 Ar 4.38232 2.15919 2.07889
38 Ar 4.49817 2.08213 6.75135
39 Ar 4.50664 2.48145 11.2616
40 Ar 4.36494 6.89859 2.12398
41 Ar 4.64049 6.74852 6.56458
42 Ar 4.32293 6.64509 11.0693
43 Ar 4.49531 11.22 2.42015
44 Ar 4.47397 11.0648 6.86002
45 Ar 4.69672 10.9788 11.1142
46 Ar 8.92609 2.09338 2.27106
47 Ar 9.0023 2.29706 6.58265
48 Ar 8.85842 2.18889 11.088
49 Ar 8.93059 6.69802 2.12883
50 Ar 8.89316 6.64776 6.44872
51 Ar 9.14281 6.55049 11.1386
52 Ar 8.67943 11.2595 2.4071
53 Ar 8.92835 10.9129 6.657
54 Ar 8.72191 11.1651 11.2624
55 Ar 2.20999 -0.0974039 2.30295
56 Ar 2.23482 -0.153281 6.81251
57 Ar 2.29951 -0.0395707 10.8944
58 Ar 2.21098 4.29484 2.22515
59 Ar 2.30271 4.43093 6.62985
60 Ar 2.0404 4.28797 11.1544
61 Ar 2.06705 9.0121 2.04145
62 Ar 2.19691 8.58818 6.90124
63 Ar 2.25317 8.89381 11.1688
64 Ar 6.65628 -0.0154646 2.36386
65 Ar 6.60478 -0.10851 6.63969
66 Ar 6.5853 0.125806 11.2636
67 Ar 6.34395 4.58711 2.21991
68 Ar 6.69057 4.40609 6.52511
69 Ar 6.7454 4.35586 11.1217
70 Ar 6.83769 9.06218 2.40744
71 Ar 6.78091 8.78446 6.64248
72 Ar 6.53351 8.77794 11.3245
73 Ar 11.0703 0.045616 2.2383
74 Ar 11.0523 0.181382 6.89791
75 Ar 10.8951 0.132821 10.9821
76 Ar 10.9801 4.27933 2.15736
77 Ar 11.3036 4.46995 6.52289
78 Ar 11.2631 4.52364 11.0413
79 Ar 11.2712 8.92481 2.15623
80 Ar 11.1384 8.78215 6.51266
81 Ar 10.9622 9.01545 11.0988
82 Ar 2.13608 2.21745 0.0338446
83 Ar 2.199 2.19158 4.42895
84 Ar 2.49299 2.57363 8.82208
85 Ar 2.17052 6.70513 0.134298
86 Ar 2.18891 6.73818 4.35734
87 Ar 2.33109 6.64959 8.87506
88 Ar 2.32901 11.2089 -0.173943
89 Ar 2.33423 11.0709 4.63279
90 Ar 2.2679 11.0729 8.90584
91 Ar 6.61026 2.42808 0.0295243
92 Ar 6.71601 2.15725 4.46718
93 Ar 6.67356 2.40234 8.92791
94 Ar 6.71283 6.62912 0.206563
95 Ar 6.62881 6.66181 4.35764
96 Ar 6.70359 6.64571 9.07202
97 Ar 6.43683 11.1554 0.0688218
98 Ar 6.52475 11.1414 4.4865
99 Ar 6.77732 10.8098 8.93642
100 Ar 11.0632 2.04323 -0.05038
101 Ar 11.25 2.14937 4.58112
102 Ar 11.131 2.3699 8.85076
103 Ar 11.2923 6.78562 -0.0923845
104 Ar 11.1625 6.69387 4.40693
105 Ar 11.2873 6.8522 8.84609
106 Ar 11.0492 11.129 0.0639346
107 Ar 11.0978 10.8967 4.3985
108 Ar 11.0546 11.1771 8.7308
ITEM: TIMESTEP
14070
ITEM: NUMBER OF ATOMS
108
ITEM: BOX BOUNDS pp pp pp
0.0000000000000000e+00 1.3349999400000000e+01
0.0000000000000000e+00 1.3349999400000000e+01
0.0000000000000000e+00 1.3349999400000000e+01
ITEM: ATOMS id element xu yu zu
1 Ar -0.020485 -0.0631816 -0.125787
2 Ar 0.0767393 -0.0208046 4.51883
3 Ar 0.119279 0.290756 8.88054
4 Ar -0.104187 4.54532 -0.00542181
5 Ar -0.0397204 4.48486 4.38483
6 Ar -0.0156721 4.43715 8.97417
7 Ar 0.115653 8.8628 -0.332471
8 Ar 0.13518 8.92169 4.39932
9 Ar 0.0939093 8.96911 9.02218
10 Ar 4.47922 -0.0738414 0.056831
11 Ar 4.31322 0.204179 4.54965
12 Ar 4.3982 -0.123383 8.90798
13 Ar 4.25398 4.65171 0.00654053
14 Ar 4.36416 4.34933 4.45446
15 Ar 4.58292 4.49526 8.92121
16 Ar 4.31202 8.96539 0.0933984
17 Ar 4.38699 8.96606 4.50867
18 Ar 4.55807 8.78888 8.9448
19 Ar 8.94468 -0.145601 0.0166912
20 Ar 8.85703 -0.246518 4.47546
21 Ar 8.58294 -0.0402958 8.85292
22 Ar 8.99206 4.48445 0.0351753
23 Ar 8.76147 4.40482 4.35639
24 Ar 9.05592 4.51971 8.84657
25 Ar 8.81517 8.8371 0.112086
26 Ar 8.93316 8.8692 4.38877
27 Ar 8.94557 8.72676 8.86496
28 Ar 0.0125901 2.23664 2.21085
29 Ar 0.312562 2.26075 6.70712
30 Ar 0.0380823 2.22716 11.1481
31 Ar -0.0034676 6.70515 2.24427
32 Ar -8.72068e-05 6.69813 6.57075
33 Ar 0.094324 6.59305 10.991
34 Ar -0.0510421 11.2197 2.30504
35 Ar -0.113304 11.3137 6.70833
36 Ar -0.0346967 11.2166 10.9329
37 Ar 4.35963 2.17006 2.10697
38 Ar 4.49594 2.07883 6.75101
39 Ar 4.49712 2.48937 11.2558
40 Ar 4.35278 6.90886 2.1208
41 Ar 4.62977 6.74886 6.56
42 Ar 4.31558 6.66279 11.0913
43 Ar 4.48226 11.2118 2.42154
44 Ar 4.47836 11.0616 6.8609
45 Ar 4.67868 10.9831 11.1057
46 Ar 8.91246 2.09344 2.27854
47 Ar 9.02391 2.30315 6.58016
48 Ar 8.86109 2.19128 11.0908
49 Ar 8.93018 6.7026 2.14841
50 Ar 8.88632 6.64356 6.45403
51 Ar 9.15009 6.55773 11.1352
52 Ar 8.68338 11.2594 2.41136
53 Ar 8.91522 10.9151 6.65559
54 Ar 8.72873 11.1635 11.241
55 Ar 2.22035 -0.104694 2.32235
56 Ar 2.22669 -0.154351 6.81211
57 Ar 2.28606 -0.0469613 10.8849
58 Ar 2.20468 4.29783 2.21594
59 Ar 2.32487 4.44406 6.66404
60 Ar 2.03654 4.28584 11.1514
61 Ar 2.0922 9.01026 2.03607
62 Ar 2.20444 8.58216 6.89797
63 Ar 2.25462 8.9009 11.1759
64 Ar 6.65714 -0.0239214 2.34743
65 Ar 6.61191 -0.0937966 6.62184
66 Ar 6.56881 0.131795 11.2815
67 Ar 6.3257 4.58679 2.23235
68 Ar 6.69306 4.38944 6.5116
69 Ar 6.74399 4.35879 11.1067
70 Ar 6.82334 9.07181 2.39147
71 Ar 6.80311 8.7623 6.6315
72 Ar 6.52425 8.7656 11.3271
73 Ar 11.0783 0.0469092 2.22768
74 Ar 11.0685 0.179408 6.90691
75 Ar 10.8934 0.131458 10.989
76 Ar 10.9863 4.27344 2.16536
77 Ar 11.2991 4.49755 6.52554
78 Ar 11.2663 4.52148 11.053
79 Ar 11.2737 8.90157 2.1713
80 Ar 11.1489 8.79036 6.50749
81 Ar 10.9785 9.0294 11.0986
82 Ar 2.1399 2.21622 0.0403714
83 Ar 2.20856 2.19619 4.45137
84 Ar 2.50754 2.5541 8.82868
85 Ar 2.18027 6.70999 0.12058
86 Ar 2.1936 6.7422 4.36122
87 Ar 2.3426 6.63872 8.88908
88 Ar 2.33147 11.2084 -0.1784
89 Ar 2.33669 11.0605 4.61635
90 Ar 2.24813 11.0854 8.90125
91 Ar 6.62432 2.4408 0.0151472
92 Ar 6.72759 2.14395 4.46485
93 Ar 6.6833 2.40237 8.92212
94 Ar 6.71641 6.63088 0.210263
95 Ar 6.6153 6.66718 4.35865
96 Ar 6.69421 6.65497 9.07844
97 Ar 6.45459 11.1593 0.0806171
98 Ar 6.51803 11.1461 4.47525
99 Ar 6.76311 10.8166 8.94239
100 Ar 11.0731 2.0518 -0.0448463
101 Ar 11.2229 2.14321 4.58733
102 Ar 11.1375 2.37772 8.84667
103 Ar 11.291 6.7677 -0.0952101
104 Ar 11.1391 6.6829 4.41205
105 Ar 11.3074 6.84015 8.8492
106 Ar 11.0456 11.144 0.065026
107 Ar 11.0783 10.8737 4.38679
108 Ar 11.0405 11.1828 8.71155
ITEM: TIMESTEP
14080
ITEM: NUMBER OF ATOMS
108
ITEM: BOX BOUNDS pp pp pp
0.0000000000000000e+00 1.3349999400000000e+01
0.0000000000000000e+00 1.3349999400000000e+01
0.0000000000000000e+00 1.3349999400000000e+01
ITEM: ATOMS id element xu yu zu
1 Ar -0.0326945 -0.0529797 -0.115471
2 Ar 0.0762939 -0.0320637 4.51939
3 Ar 0.136611 0.264868 8.86623
4 Ar -0.0935493 4.53575 -0.0180516
5 Ar -0.050945 4.48923 4.3929
6 Ar -0.0341771 4.42284 8.97451
7 Ar 0.125365 8.88481 -0.333677
8 Ar 0.127599 8.92062 4.40635
9 Ar 0.103151 8.97707 9.00513
10 Ar 4.48472 -0.0639114 0.0486507
11 Ar 4.30704 0.229991 4.54606
12 Ar 4.39934 -0.131221 8.89589
13 Ar 4.25867 4.64837 0.0354375
14 Ar 4.37085 4.35152 4.46683
15 Ar 4.57629 4.48739 8.93184
16 Ar 4.29661 8.95331 0.0786035
17 Ar 4.37138 8.96875 4.49127
18 Ar 4.53596 8.77025 8.94823
19 Ar 8.94133 -0.157034 -0.0222686
20 Ar 8.87463 -0.243122 4.4834
21 Ar 8.57845 -0.00507141 8.88203
22 Ar 9.00719 4.49454 0.0432288
23 Ar 8.78003 4.42547 4.35337
24 Ar 9.06065 4.52719 8.83551
25 Ar 8.82808 8.83123 0.105949
26 Ar 8.92455 8.86356 4.39562
27 Ar 8.94887 8.7096 8.84633
28 Ar 0.0116948 2.23667 2.20865
29 Ar 0.310301 2.25507 6.69748
30 Ar 0.0394484 2.20388 11.1558
31 Ar 0.0125198 6.72728 2.23743
32 Ar 0.0197427 6.67312 6.58535
33 Ar 0.098226 6.59509 10.9966
34 Ar -0.0528387 11.2173 2.31223
35 Ar -0.124568 11.2959 6.69813
36 Ar -0.0476242 11.2386 10.9255
37 Ar 4.33841 2.181 2.13627
38 Ar 4.4943 2.07804 6.75024
39 Ar 4.48539 2.49328 11.2492
40 Ar 4.34128 6.91771 2.12151