ITEM: TIMESTEP
20000
ITEM: NUMBER OF ATOMS
108
ITEM: BOX BOUNDS pp pp pp
0.0000000000000000e+00 1.3349999400000000e+01
0.0000000000000000e+00 1.3349999400000000e+01
0.0000000000000000e+00 1.3349999400000000e+01
ITEM: ATOMS id element xu yu zu
1 Ar -0.100914 -0.153933 0.127558
2 Ar -0.0803955 -0.136514 4.26961
3 Ar -0.0851737 0.0957405 8.94725
4 Ar -0.0244582 4.61773 -0.078796
5 Ar 0.295913 4.63538 4.57899
6 Ar 0.0367743 4.3052 8.98545
7 Ar 0.105216 9.01324 0.17179
8 Ar 0.0438264 8.68679 4.42842
9 Ar 0.146086 8.96032 8.94033
10 Ar 4.47661 0.114807 -0.102773
11 Ar 4.21318 -0.108035 4.27597
12 Ar 4.238 0.157171 8.94129
13 Ar 4.51028 4.38404 0.044194
14 Ar 4.42008 4.54401 4.56818
15 Ar 4.41235 4.46844 8.73352
16 Ar 4.46291 8.81679 -0.125467
17 Ar 4.33182 9.06933 4.27362
18 Ar 4.22484 9.02594 8.83017
19 Ar 8.97866 0.0524562 0.0410796
20 Ar 8.88231 -0.0448905 4.47067
21 Ar 8.82964 -0.0177279 9.06278
22 Ar 8.90935 4.64574 -0.0781174
23 Ar 8.9243 4.45449 4.57711
24 Ar 8.80008 4.42967 8.98105
25 Ar 8.84771 8.86377 -0.0108428
26 Ar 8.70921 8.73792 4.50048
27 Ar 8.74961 8.82048 8.79524
28 Ar -0.0272664 2.24556 2.4391
29 Ar -0.0879744 2.22175 6.57992
30 Ar 0.0861202 2.1501 11.0764
31 Ar 0.159786 6.69041 2.22634
32 Ar -0.0780896 6.60254 6.77579
33 Ar 0.0715517 6.75824 11.2824
34 Ar -0.0771398 10.9854 2.35918
35 Ar -0.0630386 11.0525 6.63215
36 Ar 0.039314 11.1694 11.0397
37 Ar 4.55881 2.3129 2.31276
38 Ar 4.41538 2.13997 6.70357
39 Ar 4.4464 2.40143 11.1074
40 Ar 4.52502 6.62196 2.12275
41 Ar 4.5713 6.80748 6.69717
42 Ar 4.45806 6.74801 11.2222
43 Ar 4.47602 11.3376 1.94961
44 Ar 4.49457 11.1873 6.55253
45 Ar 4.30143 11.2948 11.1014
46 Ar 9.1034 2.20479 2.27873
47 Ar 9.077 2.21077 6.79926
48 Ar 9.01297 2.28333 11.0898
49 Ar 8.75419 6.58281 2.31097
50 Ar 8.89792 6.67405 6.69104
51 Ar 8.95224 6.70969 11.0078
52 Ar 8.92661 11.0085 2.0381
53 Ar 8.85621 11.1329 6.67069
54 Ar 8.97489 10.9512 11.0871
55 Ar 2.19696 0.179871 2.28758
56 Ar 2.12791 -0.151089 6.61812
57 Ar 2.15723 0.0513735 11.3082
58 Ar 2.29613 4.2946 2.15008
59 Ar 2.36916 4.32123 6.54096
60 Ar 2.1825 4.36629 11.1841
61 Ar 2.28431 8.86541 2.1475
62 Ar 2.0134 8.90578 6.4752
63 Ar 2.22821 9.03394 11.0806
64 Ar 6.696 0.147042 2.1131
65 Ar 6.56662 0.0493171 6.83479
66 Ar 6.48269 0.0870322 11.1557
67 Ar 6.81019 4.42854 2.33803
68 Ar 6.82525 4.33129 6.70821
69 Ar 6.70374 4.43219 11.1269
70 Ar 6.49113 8.91573 2.14197
71 Ar 6.43437 8.89422 6.62302
72 Ar 6.62582 8.86408 10.9947
73 Ar 11.1598 0.00426527 2.2665
74 Ar 11.1091 0.113781 6.61986
75 Ar 11.0856 -0.405395 11.1263
76 Ar 11.1759 4.73445 2.40016
77 Ar 10.9966 4.55175 6.85067
78 Ar 11.1969 4.35646 11.2155
79 Ar 11.0216 8.84289 2.38005
80 Ar 11.0688 8.84366 6.62508
81 Ar 11.2761 8.91507 11.131
82 Ar 2.28109 2.26462 -0.114098
83 Ar 2.18178 2.20612 4.55541
84 Ar 2.15513 2.11581 8.85405
85 Ar 2.47536 6.63574 -0.0797738
86 Ar 2.38575 6.65603 4.33697
87 Ar 2.30338 6.71659 8.97917
88 Ar 2.25983 11.156 -0.00555155
89 Ar 2.07963 11.0447 4.2622
90 Ar 2.21253 11.1657 8.86595
91 Ar 6.70228 2.3848 0.0785403
92 Ar 6.79076 2.03917 4.48143
93 Ar 6.60148 2.20844 8.88555
94 Ar 6.65442 6.58819 -0.00621637
95 Ar 6.54619 6.59103 4.43111
96 Ar 6.56116 6.75454 8.80002
97 Ar 6.74278 11.0648 0.0932939
98 Ar 6.84733 11.0642 4.25145
99 Ar 6.53831 11.0322 8.92875
100 Ar 11.2381 2.30582 0.111664
101 Ar 11.3435 2.55503 4.45157
102 Ar 11.1944 2.0954 8.89743
103 Ar 11.1037 6.83375 0.0688774
104 Ar 11.2459 6.58201 4.69911
105 Ar 11.3428 6.7919 8.97997
106 Ar 11.2138 11.0049 0.0968625
107 Ar 11.037 11.053 4.41256
108 Ar 11.0462 10.942 8.68716
ITEM: TIMESTEP
20010
ITEM: NUMBER OF ATOMS
108
ITEM: BOX BOUNDS pp pp pp
0.0000000000000000e+00 1.3349999400000000e+01
0.0000000000000000e+00 1.3349999400000000e+01
0.0000000000000000e+00 1.3349999400000000e+01
ITEM: ATOMS id element xu yu zu
1 Ar -0.0791157 -0.157781 0.132225
2 Ar -0.0778112 -0.15071 4.26469
3 Ar -0.0790028 0.0950709 8.95059
4 Ar -0.0222837 4.62564 -0.0675617
5 Ar 0.322401 4.61989 4.57315
6 Ar 0.0202593 4.31147 8.99295
7 Ar 0.104769 9.00263 0.158571
8 Ar 0.039044 8.66816 4.43285
9 Ar 0.153699 8.95344 8.94448
10 Ar 4.45118 0.117381 -0.0893382
11 Ar 4.22269 -0.110059 4.26747
12 Ar 4.21887 0.169784 8.94478
13 Ar 4.53576 4.38217 0.0350941
14 Ar 4.39991 4.5438 4.55259
15 Ar 4.41264 4.47302 8.70231
16 Ar 4.46922 8.80416 -0.131898
17 Ar 4.31384 9.06188 4.28318
18 Ar 4.21299 9.03153 8.82741
19 Ar 8.99351 0.0490097 0.0226378
20 Ar 8.88287 -0.037197 4.47121
21 Ar 8.83631 -0.0222894 9.0758
22 Ar 8.91144 4.63501 -0.0765309
23 Ar 8.9113 4.46924 4.57579
24 Ar 8.78025 4.43985 9.00189
25 Ar 8.84052 8.88133 -0.0224573
26 Ar 8.72863 8.74645 4.51025
27 Ar 8.74818 8.81386 8.77504
28 Ar -0.0279204 2.26507 2.43365
29 Ar -0.0871525 2.21787 6.57843
30 Ar 0.0977766 2.14865 11.0759
31 Ar 0.154535 6.6894 2.23822
32 Ar -0.0766727 6.5773 6.77018
33 Ar 0.0665965 6.7755 11.2757
34 Ar -0.0693878 10.9794 2.35322
35 Ar -0.0511051 11.0437 6.61664
36 Ar 0.0387081 11.1487 11.0322
37 Ar 4.55208 2.32191 2.30862
38 Ar 4.39875 2.13699 6.70628
39 Ar 4.45005 2.40892 11.106
40 Ar 4.52225 6.59038 2.13318
41 Ar 4.56073 6.78709 6.69029
42 Ar 4.4648 6.74652 11.21
43 Ar 4.49228 11.3188 1.94171
44 Ar 4.50304 11.2069 6.56463
45 Ar 4.30686 11.2718 11.0882
46 Ar 9.09381 2.22002 2.28953
47 Ar 9.0608 2.19408 6.7822
48 Ar 8.99736 2.29665 11.0712
49 Ar 8.76093 6.58205 2.30596
50 Ar 8.88649 6.67309 6.67084
51 Ar 8.95316 6.71698 11.0146
52 Ar 8.91257 11.031 2.04459
53 Ar 8.8627 11.1423 6.6874
54 Ar 8.99859 10.9501 11.0888
55 Ar 2.20206 0.160173 2.29515
56 Ar 2.12622 -0.153455 6.60333
57 Ar 2.16483 0.0484762 11.3213
58 Ar 2.317 4.31986 2.14956
59 Ar 2.37962 4.31782 6.54527
60 Ar 2.17629 4.35921 11.1744
61 Ar 2.29078 8.85309 2.15149
62 Ar 2.01688 8.90634 6.48554
63 Ar 2.22012 9.05009 11.0812
64 Ar 6.69002 0.150672 2.12067
65 Ar 6.57536 0.0424593 6.83962
66 Ar 6.46432 0.0868955 11.1423
67 Ar 6.82211 4.41054 2.33678
68 Ar 6.82466 4.32848 6.72091
69 Ar 6.70582 4.4291 11.1249
70 Ar 6.49429 8.93749 2.14931
71 Ar 6.4451 8.90736 6.61073
72 Ar 6.6486 8.84565 10.9899
73 Ar 11.1468 -0.0252187 2.27214
74 Ar 11.0949 0.122873 6.62855
75 Ar 11.1037 -0.371542 11.1462
76 Ar 11.1811 4.7353 2.4149
77 Ar 10.9873 4.53883 6.8497
78 Ar 11.2079 4.37632 11.2303
79 Ar 11.0179 8.84631 2.3648
80 Ar 11.0772 8.83016 6.62045
81 Ar 11.2844 8.94132 11.1476
82 Ar 2.27592 2.27423 -0.117863
83 Ar 2.16862 2.22654 4.56042
84 Ar 2.1558 2.12165 8.83785
85 Ar 2.47087 6.63726 -0.0616994
86 Ar 2.38758 6.65101 4.33126
87 Ar 2.30843 6.72913 8.99173
88 Ar 2.25256 11.1759 0.00842846
89 Ar 2.09486 11.0359 4.27662
90 Ar 2.1942 11.1604 8.85543
91 Ar 6.70361 2.40714 0.0736201
92 Ar 6.79159 2.02427 4.50052
93 Ar 6.59267 2.22545 8.8705
94 Ar 6.64502 6.59458 0.00981941
95 Ar 6.55692 6.59268 4.41744
96 Ar 6.55582 6.76959 8.78028
97 Ar 6.72015 11.0516 0.081147
98 Ar 6.84304 11.0512 4.24524
99 Ar 6.54742 11.0468 8.94742
100 Ar 11.2229 2.30142 0.0955891
101 Ar 11.3528 2.56416 4.46572
102 Ar 11.1913 2.06065 8.9197
103 Ar 11.1159 6.84846 0.0738284
104 Ar 11.1974 6.57829 4.70342
105 Ar 11.3352 6.79354 8.9744
106 Ar 11.2138 11.0042 0.102307
107 Ar 11.0451 11.0369 4.40753
108 Ar 11.0706 10.9345 8.69672
ITEM: TIMESTEP
20020
ITEM: NUMBER OF ATOMS
108
ITEM: BOX BOUNDS pp pp pp
0.0000000000000000e+00 1.3349999400000000e+01
0.0000000000000000e+00 1.3349999400000000e+01
0.0000000000000000e+00 1.3349999400000000e+01
ITEM: ATOMS id element xu yu zu
1 Ar -0.0562488 -0.15911 0.136169
2 Ar -0.0748236 -0.162864 4.2642
3 Ar -0.0713308 0.0900876 8.95204
4 Ar -0.0191941 4.63114 -0.0531154
5 Ar 0.344695 4.60328 4.56489
6 Ar 0.00382223 4.3201 8.9987
7 Ar 0.103823 8.98993 0.142808
8 Ar 0.032151 8.65115 4.43656
9 Ar 0.159598 8.94539 8.94688
10 Ar 4.42586 0.121065 -0.0739178
11 Ar 4.23692 -0.111252 4.26212
12 Ar 4.2023 0.178826 8.94853
13 Ar 4.56056 4.38135 0.0254358
14 Ar 4.3832 4.54023 4.53504
15 Ar 4.41342 4.47769 8.67416
16 Ar 4.4759 8.7957 -0.136897
17 Ar 4.29836 9.05355 4.29429
18 Ar 4.20352 9.0361 8.8245
19 Ar 9.00726 0.0454129 0.00251235
20 Ar 8.88485 -0.0295886 4.47134
21 Ar 8.84295 -0.027775 9.08745
22 Ar 8.91521 4.62197 -0.073533
23 Ar 8.89823 4.48283 4.57333
24 Ar 8.76298 4.45117 9.02178
25 Ar 8.83345 8.89697 -0.0343943
26 Ar 8.74961 8.75603 4.51908
27 Ar 8.74884 8.80848 8.75517
28 Ar -0.0272644 2.28594 2.42365
29 Ar -0.0842393 2.21426 6.57917
30 Ar 0.106186 2.14724 11.0787
31 Ar 0.148457 6.6875 2.24858
32 Ar -0.0710992 6.55258 6.76598
33 Ar 0.0623081 6.79265 11.2675
34 Ar -0.0613437 10.9735 2.34531
35 Ar -0.0402487 11.0364 6.6008
36 Ar 0.0383926 11.1279 11.0261
37 Ar 4.54437 2.32983 2.30507
38 Ar 4.38311 2.13376 6.70627
39 Ar 4.45364 2.41515 11.1035
40 Ar 4.5191 6.55897 2.14513
41 Ar 4.54518 6.76497 6.68179
42 Ar 4.47239 6.74195 11.1931
43 Ar 4.50735 11.2978 1.93706
44 Ar 4.51003 11.2263 6.57679
45 Ar 4.31456 11.247 11.0756
46 Ar 9.08334 2.23683 2.30034
47 Ar 9.04195 2.17731 6.76417
48 Ar 8.98092 2.30785 11.0548
49 Ar 8.7696 6.58429 2.30038
50 Ar 8.87337 6.67199 6.65209
51 Ar 8.95422 6.72467 11.0221
52 Ar 8.89895 11.0551 2.05394
53 Ar 8.86775 11.1518 6.70377
54 Ar 9.01937 10.9495 11.0908
55 Ar 2.20596 0.139771 2.29863
56 Ar 2.12405 -0.154484 6.58807
57 Ar 2.1722 0.0447669 11.3315
58 Ar 2.33634 4.34638 2.14951
59 Ar 2.38732 4.31781 6.55528
60 Ar 2.1713 4.35508 11.1626
61 Ar 2.29815 8.84136 2.15466
62 Ar 2.02466 8.90582 6.49869
63 Ar 2.21226 9.06444 11.0844
64 Ar 6.68489 0.15245 2.1288
65 Ar 6.58576 0.0338593 6.84265
66 Ar 6.44983 0.0860103 11.1288
67 Ar 6.83235 4.39095 2.33547
68 Ar 6.82149 4.32653 6.73224
69 Ar 6.70668 4.42763 11.1219
70 Ar 6.49923 8.95717 2.15742
71 Ar 6.45899 8.92286 6.5977
72 Ar 6.67096 8.82815 10.9873
73 Ar 11.132 -0.0546443 2.2776
74 Ar 11.0818 0.128134 6.63636
75 Ar 11.1221 -0.332949 11.1661
76 Ar 11.1866 4.73416 2.42639
77 Ar 10.9801 4.52389 6.85017
78 Ar 11.2182 4.39811 11.2427
79 Ar 11.0147 8.84762 2.34939
80 Ar 11.0861 8.8172 6.61592
81 Ar 11.2913 8.96752 11.1641
82 Ar 2.26883 2.28327 -0.117589
83 Ar 2.15673 2.24506 4.56354
84 Ar 2.15595 2.13009 8.82138
85 Ar 2.46173 6.63845 -0.0424016
86 Ar 2.3896 6.64783 4.32703
87 Ar 2.31183 6.73959 9.00289
88 Ar 2.24436 11.1955 0.0234111
89 Ar 2.1116 11.0284 4.2925
90 Ar 2.17532 11.1572 8.84394
91 Ar 6.70722 2.42694 0.0672228
92 Ar 6.79041 2.0119 4.52036
93 Ar 6.58493 2.24251 8.85693
94 Ar 6.63691 6.60236 0.0250939
95 Ar 6.56825 6.59594 4.40485
96 Ar 6.55122 6.78242 8.76294
97 Ar 6.69708 11.0406 0.0639441
98 Ar 6.83582 11.0406 4.24085
99 Ar 6.5573 11.0634 8.96575
100 Ar 11.208 2.2964 0.0789241
101 Ar 11.3578 2.57093 4.48075
102 Ar 11.1864 2.02885 8.94375
103 Ar 11.1283 6.86205 0.0783786
104 Ar 11.1475 6.57557 4.70411
105 Ar 11.3249 6.79382 8.96976
106 Ar 11.2123 11.0034 0.107045
107 Ar 11.0524 11.0211 4.40416
108 Ar 11.0958 10.9291 8.70858
ITEM: TIMESTEP
20030
ITEM: NUMBER OF ATOMS
108
ITEM: BOX BOUNDS pp pp pp
0.0000000000000000e+00 1.3349999400000000e+01
0.0000000000000000e+00 1.3349999400000000e+01
0.0000000000000000e+00 1.3349999400000000e+01
ITEM: ATOMS id element xu yu zu
1 Ar -0.0329329 -0.157792 0.139552
2 Ar -0.0715865 -0.172663 4.2679
3 Ar -0.062011 0.0807763 8.95156
4 Ar -0.0151811 4.63428 -0.0357472
5 Ar 0.362267 4.58611 4.55432
6 Ar -0.0124847 4.3308 9.00265
7 Ar 0.102688 8.97548 0.125017
8 Ar 0.0233211 8.63589 4.43969
9 Ar 0.163534 8.93602 8.94727
10 Ar 4.40132 0.125807 -0.0568074
11 Ar 4.25566 -0.111525 4.25988
12 Ar 4.18846 0.184038 8.95253
13 Ar 4.58396 4.38182 0.0152368
14 Ar 4.37046 4.53326 4.51591
15 Ar 4.41475 4.48239 8.64975
16 Ar 4.48272 8.79126 -0.140449
17 Ar 4.28586 9.04429 4.30694
18 Ar 4.1968 9.03971 8.8213
19 Ar 9.01936 0.0417952 -0.0189349
20 Ar 8.88828 -0.0224653 4.47102
21 Ar 8.84944 -0.0341257 9.09774
22 Ar 8.92065 4.60708 -0.0691952
23 Ar 8.88512 4.49476 4.56982
24 Ar 8.74875 4.46368 9.04002
25 Ar 8.8266 8.91057 -0.046222
26 Ar 8.77189 8.76675 4.52669
27 Ar 8.75174 8.80452 8.73588
28 Ar -0.0254355 2.30761 2.40924
29 Ar -0.0793692 2.21087 6.58243
30 Ar 0.111307 2.14592 11.0846
31 Ar 0.141538 6.68478 2.25738
32 Ar -0.0616932 6.52852 6.76298
33 Ar 0.0587807 6.80923 11.2578
34 Ar -0.0528137 10.9676 2.33572
35 Ar -0.0307958 11.0307 6.5848
36 Ar 0.0382469 11.1079 11.0215
37 Ar 4.53579 2.33644 2.30212
38 Ar 4.36884 2.13003 6.70333
39 Ar 4.457 2.42005 11.0998
40 Ar 4.51601 6.52843 2.15838
41 Ar 4.52535 6.74199 6.67157
42 Ar 4.48049 6.73437 11.1722
43 Ar 4.52081 11.275 1.93588
44 Ar 4.51553 11.2454 6.58901
45 Ar 4.32422 11.2207 11.064
46 Ar 9.07245 2.25472 2.31097
47 Ar 9.02077 2.16092 6.74572
48 Ar 8.96379 2.31684 11.0409
49 Ar 8.78001 6.5895 2.29411
50 Ar 8.85853 6.67066 6.63532
51 Ar 8.95555 6.73271 11.0304
52 Ar 8.88576 11.0805 2.0657
53 Ar 8.87155 11.1613 6.7196
54 Ar 9.03719 10.9496 11.0928
55 Ar 2.20858 0.119076 2.29834
56 Ar 2.12145 -0.15409 6.57248
57 Ar 2.17927 0.0402201 11.3382
58 Ar 2.35381 4.37364 2.14964
59 Ar 2.3919 4.32139 6.57075
60 Ar 2.16759 4.35415 11.1488
61 Ar 2.3062 8.83046 2.15682
62 Ar 2.03646 8.90398 6.51434
63 Ar 2.20498 9.07675 11.0903
64 Ar 6.68072 0.152521 2.13706
65 Ar 6.59761 0.0237392 6.84412
66 Ar 6.43908 0.0845257 11.1155
67 Ar 6.84083 4.37019 2.33429
68 Ar 6.81584 4.32561 6.7417
69 Ar 6.70616 4.42813 11.1181
70 Ar 6.50582 8.97406 2.16619
71 Ar 6.47529 8.94022 6.58411
72 Ar 6.69266 8.81183 10.9866
73 Ar 11.1158 -0.0833101 2.28269
74 Ar 11.0701 0.129343 6.64318
75 Ar 11.1411 -0.290302 11.1859
76 Ar 11.1922 4.73099 2.43446
77 Ar 10.9748 4.50702 6.85228
78 Ar 11.2276 4.42152 11.2525
79 Ar 11.0118 8.847 2.33401
80 Ar 11.0956 8.80509 6.6118
81 Ar 11.2966 8.99293 11.1802
82 Ar 2.25997 2.29188 -0.113143
83 Ar 2.14646 2.26096 4.56441
84 Ar 2.15525 2.14118 8.80497
85 Ar 2.44842 6.63921 -0.0226203
86 Ar 2.39157 6.64668 4.32452
87 Ar 2.3135 6.74774 9.01256
88 Ar 2.2355 11.214 0.0392137
89 Ar 2.12944 11.022 4.30941
90 Ar 2.15623 11.1564 8.83157
91 Ar 6.71321 2.44332 0.0594317
92 Ar 6.78695 2.00235 4.54064
93 Ar 6.57827 2.25908 8.84501
94 Ar 6.63043 6.61135 0.0394951
95 Ar 6.57983 6.60074 4.3935
96 Ar 6.54728 6.79296 8.74801
97 Ar 6.6741 11.0322 0.0416382
98 Ar 6.82582 11.0328 4.23867
99 Ar 6.56791 11.0816 8.98359
100 Ar 11.1934 2.29073 0.0619831
101 Ar 11.3584 2.5752 4.49623
102 Ar 11.1797 2.00061 8.96916
103 Ar 11.1406 6.87427 0.0824194
104 Ar 11.0974 6.5738 4.70129
105 Ar 11.3119 6.79291 8.96608
106 Ar 11.2095 11.0027 0.111096
107 Ar 11.0587 11.0056 4.40261
108 Ar 11.1215 10.926 8.7224
ITEM: TIMESTEP
20040
ITEM: NUMBER OF ATOMS
108
ITEM: BOX BOUNDS pp pp pp
0.0000000000000000e+00 1.3349999400000000e+01
0.0000000000000000e+00 1.3349999400000000e+01
0.0000000000000000e+00 1.3349999400000000e+01
ITEM: ATOMS id element xu yu zu
1 Ar -0.00983292 -0.153731 0.142519
2 Ar -0.0682729 -0.17986 4.2754
3 Ar -0.0510053 0.067321 8.94917
4 Ar -0.0102844 4.63513 -0.015862
5 Ar 0.374743 4.56894 4.54164
6 Ar -0.0286064 4.34322 9.00487
7 Ar 0.101656 8.95965 0.105769
8 Ar 0.0128138 8.62249 4.44245
9 Ar 0.165319 8.92521 8.94545
10 Ar 4.37823 0.131524 -0.03831
11 Ar 4.27859 -0.110814 4.26059
12 Ar 4.17743 0.185303 8.95671
13 Ar 4.60531 4.38377 0.00454952
14 Ar 4.36199 4.52285 4.49574
15 Ar 4.41672 4.48704 8.62976
16 Ar 4.48941 8.79051 -0.142621
17 Ar 4.27677 9.03406 4.32112
18 Ar 4.19315 9.04239 8.8177
19 Ar 9.02931 0.0382458 -0.04132
20 Ar 8.89312 -0.0161555 4.47024
21 Ar 8.85573 -0.0412625 9.10669
22 Ar 8.92771 4.59082 -0.0636112
23 Ar 8.87199 4.50458 4.56538
24 Ar 8.73795 4.47743 9.056
25 Ar 8.82011 8.92207 -0.0574826
26 Ar 8.79515 8.77873 4.53285
27 Ar 8.75694 8.80207 8.71742
28 Ar -0.0226303 2.32952 2.39068
29 Ar -0.0727502 2.20767 6.58839
30 Ar 0.113192 2.14474 11.0934
31 Ar 0.13379 6.68137 2.26462
32 Ar -0.0488857 6.50529 6.76094
33 Ar 0.0560594 6.8248 11.2469
34 Ar -0.0436556 10.9615 2.32478
35 Ar -0.0230029 11.0264 6.5688
36 Ar 0.0381694 11.0894 11.0186
37 Ar 4.52643 2.34154 2.29976
38 Ar 4.35626 2.12559 6.69734
39 Ar 4.45994 2.42359 11.095
40 Ar 4.5134 6.49946 2.17259
41 Ar 4.50203 6.71902 6.65957
42 Ar 4.4888 6.72399 11.1478
43 Ar 4.53229 11.2506 1.93826
44 Ar 4.51952 11.2636 6.60127
45 Ar 4.3355 11.1935 11.0536
46 Ar 9.06156 2.27311 2.32124
47 Ar 8.99763 2.14531 6.72738
48 Ar 8.94614 2.32356 11.0297
49 Ar 8.79191 6.59757 2.28706
50 Ar 8.84197 6.66901 6.62102
51 Ar 8.95727 6.74101 11.0393
52 Ar 8.87294 11.1068 2.07935
53 Ar 8.8743 11.1708 6.73471
54 Ar 9.05205 10.9508 11.0948
55 Ar 2.20994 0.0984496 2.29479
56 Ar 2.11847 -0.152186 6.55669
57 Ar 2.18597 0.0348592 11.3412
58 Ar 2.36905 4.40111 2.14972
59 Ar 2.39304 4.3286 6.59114
60 Ar 2.16521 4.35652 11.1333
61 Ar 2.31472 8.82061 2.15787
62 Ar 2.05191 8.90066 6.53211
63 Ar 2.19861 9.08679 11.099
64 Ar 6.67759 0.151058 2.14508
65 Ar 6.61072 0.0123484 6.84425
66 Ar 6.43187 0.0826066 11.1027
67 Ar 6.84746 4.34881 2.33339
68 Ar 6.80785 4.32589 6.74889
69 Ar 6.70416 4.43089 11.1137
70 Ar 6.51395 8.98757 2.17547
71 Ar 6.49324 8.95894 6.57021
72 Ar 6.71343 8.7969 10.9877
73 Ar 11.0986 -0.110558 2.28728
74 Ar 11.0601 0.126442 6.64899
75 Ar 11.1607 -0.244394 11.2054
76 Ar 11.1977 4.72575 2.43901
77 Ar 10.9711 4.48844 6.85617
78 Ar 11.236 4.44625 11.2598
79 Ar 11.0092 8.84469 2.31885
80 Ar 11.1058 8.79406 6.60842
81 Ar 11.3002 9.01681 11.1955
82 Ar 2.24953 2.30021 -0.104568
83 Ar 2.13814 2.27362 4.56277
84 Ar 2.15343 2.15484 8.78897
85 Ar 2.43155 6.63952 -0.00309172
86 Ar 2.3932 6.64764 4.32392
87 Ar 2.31342 6.75341 9.02067
88 Ar 2.2263 11.2309 0.0556117
89 Ar 2.14799 11.017 4.32696
90 Ar 2.13727 11.158 8.81849
91 Ar 6.72159 2.4555 0.0503401
92 Ar 6.78098 1.99579 4.56105
93 Ar 6.57266 2.27463 8.83487
94 Ar 6.62584 6.62137 0.0529371
95 Ar 6.59134 6.60704 4.3835
96 Ar 6.5439 6.80124 8.73538
97 Ar 6.65173 11.0266 0.0143557
98 Ar 6.81322 11.028 4.23904
99 Ar 6.57918 11.1009 9.00079
100 Ar 11.1794 2.28442 0.0450626
101 Ar 11.3548 2.57684 4.51171
102 Ar 11.1711 1.9764 8.99547
103 Ar 11.1525 6.88482 0.0858115
104 Ar 11.0482 6.57295 4.69511
105 Ar 11.2965 6.79095 8.96337
106 Ar 11.2056 11.0024 0.11449
107 Ar 11.064 10.9907 4.40294
108 Ar 11.1475 10.9251 8.73782
ITEM: TIMESTEP
20050
ITEM: NUMBER OF ATOMS
108
ITEM: BOX BOUNDS pp pp pp
0.0000000000000000e+00 1.3349999400000000e+01
0.0000000000000000e+00 1.3349999400000000e+01
0.0000000000000000e+00 1.3349999400000000e+01
ITEM: ATOMS id element xu yu zu
1 Ar 0.0123713 -0.146866 0.145196
2 Ar -0.0650717 -0.184275 4.28618
3 Ar -0.0384006 0.0501033 8.94497
4 Ar -0.00459881 4.63378 0.00603073
5 Ar 0.3819 4.55227 4.52713
6 Ar -0.0444819 4.357 9.00547
7 Ar 0.100984 8.94283 0.0856723
8 Ar 0.000950263 8.61104 4.44501
9 Ar 0.16484 8.91295 8.94129
10 Ar 4.35716 0.138105 -0.0187364
11 Ar 4.30524 -0.109086 4.26399
12 Ar 4.16921 0.182657 8.96097
13 Ar 4.62401 4.38733 -0.00653827
14 Ar 4.3579 4.50905 4.47521
15 Ar 4.41943 4.49152 8.61477
16 Ar 4.4957 8.79295 -0.14354
17 Ar 4.27144 9.02281 4.33674
18 Ar 4.19278 9.04418 8.81366
19 Ar 9.03664 0.034811 -0.0642494
20 Ar 8.89927 -0.0109014 4.46895
21 Ar 8.86178 -0.0490809 9.11435
22 Ar 8.93631 4.57366 -0.0568928
23 Ar 8.85888 4.51189 4.56016
24 Ar 8.73087 4.49242 9.06919
25 Ar 8.81408 8.93153 -0.0677124
26 Ar 8.81899 8.79207 4.53736
27 Ar 8.76446 8.80123 8.70008
28 Ar -0.0190827 2.35114 2.36833
29 Ar -0.0646596 2.2046 6.59712
30 Ar 0.11199 2.14379 11.1047
31 Ar 0.125253 6.67741 2.27034
32 Ar -0.0331862 6.48306 6.75957
33 Ar 0.054144 6.8389 11.235
34 Ar -0.0337943 10.9551 2.31284
35 Ar -0.0170464 11.0235 6.55297
36 Ar 0.038095 11.0733 11.0176
37 Ar 4.51641 2.34496 2.29787
38 Ar 4.34562 2.12032 6.68832
39 Ar 4.46226 2.42571 11.0892
40 Ar 4.51171 6.47276 2.18741
41 Ar 4.47605 6.69683 6.64584
42 Ar 4.49702 6.71111 11.1207
43 Ar 4.54151 11.2251 1.94421
44 Ar 4.52198 11.2809 6.61362
45 Ar 4.34801 11.1659 11.0447
46 Ar 9.05112 2.29145 2.33102
47 Ar 8.97299 2.13083 6.70967
48 Ar 8.92812 2.32801 11.0212
49 Ar 8.80501 6.60827 2.27914
50 Ar 8.82375 6.66696 6.6096
51 Ar 8.95949 6.74945 11.0492
52 Ar 8.86039 11.1335 2.09436
53 Ar 8.87625 11.1801 6.74895
54 Ar 9.06398 10.9534 11.0965
55 Ar 2.21016 0.0782118 2.28864
56 Ar 2.11524 -0.148694 6.54087
57 Ar 2.19228 0.028753 11.3404
58 Ar 2.38174 4.42819 2.14952
59 Ar 2.39049 4.33937 6.61563
60 Ar 2.16413 4.36215 11.1165
61 Ar 2.32349 8.81199 2.15776
62 Ar 2.0705 8.89578 6.55155
63 Ar 2.19348 9.09437 11.1103
64 Ar 6.67555 0.14826 2.15254
65 Ar 6.62487 -4.89001e-05 6.84327
66 Ar 6.42796 0.0804341 11.091
67 Ar 6.85214 4.32738 2.33289
68 Ar 6.79774 4.32753 6.75345
69 Ar 6.70063 4.43611 11.1086
70 Ar 6.52361 8.99728 2.18502
71 Ar 6.51216 8.97853 6.55626
72 Ar 6.73298 8.78357 10.9903
73 Ar 11.0811 -0.135781 2.29126
74 Ar 11.0521 0.119537 6.65381
75 Ar 11.1809 -0.196104 11.2246
76 Ar 11.2031 4.71843 2.44003
77 Ar 10.9688 4.46844 6.86185
78 Ar 11.2432 4.472 11.2645
79 Ar 11.007 8.84102 2.3041
80 Ar 11.1166 8.78424 6.60609
81 Ar 11.3019 9.03843 11.2096
82 Ar 2.23775 2.30843 -0.0920747
83 Ar 2.13204 2.28259 4.5585
84 Ar 2.15035 2.17085 8.77378
85 Ar 2.41179 6.63942 0.0154823
86 Ar 2.3942 6.65069 4.32539
87 Ar 2.31158 6.75654 9.02716
88 Ar 2.21711 11.2454 0.0723324
89 Ar 2.16689 11.0131 4.34471
90 Ar 2.11884 11.1619 8.80492
91 Ar 6.73229 2.46282 0.0400487
92 Ar 6.77238 1.99233 4.58119
93 Ar 6.56809 2.28869 8.82659
94 Ar 6.62333 6.63221 0.0653547
95 Ar 6.60246 6.61478 4.3749
96 Ar 6.54098 6.80735 8.72488
97 Ar 6.63043 11.0238 -0.0175879
98 Ar 6.79827 11.0265 4.24222
99 Ar 6.59105 11.1208 9.01717
100 Ar 11.1662 2.27755 0.0284462
101 Ar 11.3471 2.57571 4.52674
102 Ar 11.161 1.95657 9.02214
103 Ar 11.1637 6.89344 0.0883918
104 Ar 11.001 6.57293 4.68579
105 Ar 11.2786 6.78812 8.96153
106 Ar 11.2007 11.0027 0.117264
107 Ar 11.0684 10.9764 4.40514
108 Ar 11.1735 10.9264 8.75447
ITEM: TIMESTEP
20060
ITEM: NUMBER OF ATOMS
108
ITEM: BOX BOUNDS pp pp pp
0.0000000000000000e+00 1.3349999400000000e+01
0.0000000000000000e+00 1.3349999400000000e+01
0.0000000000000000e+00 1.3349999400000000e+01
ITEM: ATOMS id element xu yu zu
1 Ar 0.0330212 -0.137176 0.147679
2 Ar -0.0621815 -0.185806 4.29966
3 Ar -0.024412 0.0296876 8.93908
4 Ar 0.00172438 4.63035 0.0293285
5 Ar 0.383653 4.53659 4.51113
6 Ar -0.0600437 4.37172 9.00464
7 Ar 0.100875 8.92547 0.065353
8 Ar -0.0119091 8.60161 4.44757
9 Ar 0.162066 8.89931 8.93476
10 Ar 4.33864 0.145412 0.00158783
11 Ar 4.33504 -0.106346 4.26975
12 Ar 4.1637 0.176278 8.96516
13 Ar 4.6396 4.39254 -0.0179051
14 Ar 4.35812 4.49197 4.45508
15 Ar 4.42299 4.49568 8.60528
16 Ar 4.50133 8.79799 -0.143371
17 Ar 4.27013 9.01056 4.35369
18 Ar 4.1958 9.04511 8.80917
19 Ar 9.04096 0.0314951 -0.0873311
20 Ar 8.90658 -0.00685075 4.46716
21 Ar 8.86762 -0.0574448 9.12074
22 Ar 8.94633 4.55608 -0.0491657
23 Ar 8.8458 4.51637 4.55431
24 Ar 8.7277 4.50858 9.07917
25 Ar 8.8086 8.93904 -0.0764639
26 Ar 8.84301 8.80688 4.54012
27 Ar 8.77422 8.80204 8.68412
28 Ar -0.0150432 2.37193 2.34265
29 Ar -0.0554367 2.20167 6.60854
30 Ar 0.107948 2.14316 11.1181
31 Ar 0.115992 6.67312 2.27467
32 Ar -0.0151607 6.46204 6.75864
33 Ar 0.0529939 6.85111 11.2221
34 Ar -0.0232306 10.9483 2.30032
35 Ar -0.0130176 11.0218 6.53749
36 Ar 0.0380051 11.0602 11.0188
37 Ar 4.50581 2.34654 2.29631
38 Ar 4.33707 2.11415 6.67642
39 Ar 4.46377 2.42638 11.0826
40 Ar 4.51136 6.44901 2.20241
41 Ar 4.4483 6.6761 6.63049
42 Ar 4.50492 6.69614 11.0919
43 Ar 4.5483 11.1988 1.95364
44 Ar 4.5229 11.2968 6.62609
45 Ar 4.36138 11.1384 11.0373
46 Ar 9.04153 2.30915 2.34015
47 Ar 8.94736 2.11774 6.6931
48 Ar 8.90985 2.33024 11.0157
49 Ar 8.81897 6.62127 2.27031
50 Ar 8.80398 6.66449 6.6014
51 Ar 8.96232 6.75789 11.0598
52 Ar 8.84796 11.16 2.11019
53 Ar 8.87767 11.1892 6.76218
54 Ar 9.07304 10.9577 11.0978
55 Ar 2.20941 0.0586473 2.28072
56 Ar 2.11188 -0.143554 6.52521
57 Ar 2.19822 0.0220064 11.3356
58 Ar 2.39153 4.4543 2.14893
59 Ar 2.38408 4.35345 6.64316
60 Ar 2.16431 4.37087 11.0986
61 Ar 2.33232 8.80478 2.15655
62 Ar 2.09169 8.88935 6.57221
63 Ar 2.18988 9.09938 11.124
64 Ar 6.67461 0.144342 2.15915
65 Ar 6.63982 -0.0131842 6.8414
66 Ar 6.42709 0.078205 11.0807
67 Ar 6.85476 4.30651 2.33283
68 Ar 6.78571 4.33065 6.75511
69 Ar 6.69564 4.44393 11.1032
70 Ar 6.53479 9.00293 2.1946
71 Ar 6.53147 8.99852 6.54258
72 Ar 6.75104 8.77198 10.9942
73 Ar 11.0636 -0.15843 2.29454
74 Ar 11.0463 0.108876 6.65777
75 Ar 11.2018 -0.146387 11.2432
76 Ar 11.2083 4.70903 2.43759
77 Ar 10.9676 4.44735 6.86926
78 Ar 11.2491 4.49844 11.267
79 Ar 11.005 8.83636 2.28996
80 Ar 11.128 8.77572 6.60511
81 Ar 11.3016 9.05715 11.2223
82 Ar 2.22491 2.31665 -0.0760276
83 Ar 2.12837 2.28759 4.55158
84 Ar 2.14601 2.18883 8.75979
85 Ar 2.38988 6.63899 0.032456
86 Ar 2.39428 6.65563 4.32899
87 Ar 2.30804 6.75713 9.032
88 Ar 2.20827 11.257 0.0890502
89 Ar 2.1858 11.0105 4.36228
90 Ar 2.10131 11.1679 8.79109
91 Ar 6.74514 2.46483 0.0286678
92 Ar 6.7611 1.99197 4.60065
93 Ar 6.56454 2.3008 8.82021
94 Ar 6.62303 6.64366 0.0766969
95 Ar 6.61296 6.62389 4.36776
96 Ar 6.53838 6.81146 8.71623
97 Ar 6.61057 11.0242 -0.0536838
98 Ar 6.7812 11.0284 4.24838
99 Ar 6.60346 11.1407 9.03255
100 Ar 11.1537 2.27025 0.0124133
101 Ar 11.3358 2.57168 4.54089
102 Ar 11.1497 1.94135 9.04855
103 Ar 11.1738 6.89985 0.0899844
104 Ar 10.9568 6.57364 4.6736
105 Ar 11.2587 6.78453 8.96044
106 Ar 11.1951 11.0039 0.119465
107 Ar 11.0719 10.963 4.40912
108 Ar 11.1991 10.9299 8.77193
ITEM: TIMESTEP
20070
ITEM: NUMBER OF ATOMS
108
ITEM: BOX BOUNDS pp pp pp
0.0000000000000000e+00 1.3349999400000000e+01
0.0000000000000000e+00 1.3349999400000000e+01
0.0000000000000000e+00 1.3349999400000000e+01
ITEM: ATOMS id element xu yu zu
1 Ar 0.051518 -0.124694 0.150036
2 Ar -0.0598042 -0.184414 4.31516
3 Ar -0.009373 0.00679506 8.93168
4 Ar 0.00848153 4.62496 0.0533485
5 Ar 0.380051 4.52227 4.49403
6 Ar -0.0752181 4.387 9.00262
7 Ar 0.101469 8.908 0.0454318
8 Ar -0.025385 8.59423 4.45027
9 Ar 0.157041 8.88445 8.92591
10 Ar 4.32306 0.153282 0.0223152
11 Ar 4.36735 -0.102635 4.27751
12 Ar 4.16077 0.166477 8.9691
13 Ar 4.65175 4.39934 -0.0294005
14 Ar 4.36243 4.47182 4.43613
15 Ar 4.42748 4.49937 8.60159
16 Ar 4.50607 8.80497 -0.142286
17 Ar 4.27299 8.99733 4.37177
18 Ar 4.20225 9.0452 8.80428
19 Ar 9.04195 0.028265 -0.110186
20 Ar 8.91481 -0.00405686 4.46487
21 Ar 8.87331 -0.0661816 9.12592
22 Ar 8.95763 4.53852 -0.0405663
23 Ar 8.83281 4.5178 4.54802
24 Ar 8.72852 4.52578 9.08568
25 Ar 8.80376 8.94477 -0.0833267
26 Ar 8.86673 8.82323 4.54105
27 Ar 8.78609 8.80451 8.66984
28 Ar -0.0107641 2.39138 2.31421
29 Ar -0.0454714 2.19888 6.62243
30 Ar 0.10142 2.14302 11.1332
31 Ar 0.106083 6.66873 2.27774
32 Ar 0.00458318 6.44246 6.75786
33 Ar 0.0525344 6.86103 11.2086
34 Ar -0.0120428 10.9411 2.28763
35 Ar -0.0109212 11.0209 6.52252
36 Ar 0.0379285 11.0505 11.0221
37 Ar 4.49475 2.34616 2.29487
38 Ar 4.33065 2.10712 6.66191
39 Ar 4.46427 2.42555 11.0752
40 Ar 4.51274 6.42884 2.21716
41 Ar 4.41964 6.65737 6.61373
42 Ar 4.5123 6.67955 11.0621
43 Ar 4.55259 11.1723 1.96632
44 Ar 4.52229 11.3112 6.63873
45 Ar 4.3752 11.1114 11.0317
46 Ar 9.03315 2.32561 2.34852
47 Ar 8.92132 2.10625 6.67812
48 Ar 8.8914 2.3304 11.0129
49 Ar 8.83345 6.6362 2.26052
50 Ar 8.78288 6.6616 6.59658
51 Ar 8.96581 6.76615 11.0714
52 Ar 8.8355 11.1858 2.12634
53 Ar 8.87883 11.1979 6.77429
54 Ar 9.07935 10.9639 11.0986
55 Ar 2.2079 0.0400129 2.2719
56 Ar 2.10856 -0.13673 6.50988
57 Ar 2.20379 0.0147507 11.3271
58 Ar 2.39817 4.47886 2.14787
59 Ar 2.37371 4.37046 6.67258
60 Ar 2.16565 4.38241 11.0801
61 Ar 2.34106 8.7991 2.15436
62 Ar 2.11485 8.88149 6.59359
63 Ar 2.18805 9.10171 11.1397
64 Ar 6.67476 0.139534 2.16469
65 Ar 6.65535 -0.0267924 6.83882
66 Ar 6.42897 0.0761295 11.072
67 Ar 6.85518 4.28677 2.3332
68 Ar 6.77201 4.33532 6.7537
69 Ar 6.68931 4.45436 11.0975
70 Ar 6.54751 9.00446 2.20398
71 Ar 6.55066 9.01849 6.5295
72 Ar 6.76733 8.76228 10.999
73 Ar 11.0469 -0.178019 2.29706
74 Ar 11.0428 0.0948349 6.66102
75 Ar 11.2233 -0.0962678 11.2613
76 Ar 11.2129 4.69761 2.43182
77 Ar 10.9672 4.42556 6.87824
78 Ar 11.2538 4.52523 11.2673
79 Ar 11.0035 8.83112 2.2766
80 Ar 11.1401 8.76847 6.6057
81 Ar 11.2993 9.07237 11.2333
82 Ar 2.21133 2.32498 -0.0569204
83 Ar 2.12722 2.28852 4.54211
84 Ar 2.14049 2.20833 8.74746
85 Ar 2.36653 6.63835 0.0472555
86 Ar 2.39315 6.6622 4.33472
87 Ar 2.30288 6.7553 9.03514
88 Ar 2.20014 11.2653 0.105386
89 Ar 2.20448 11.0092 4.3793
90 Ar 2.08505 11.1756 8.77727
91 Ar 6.75986 2.46128 0.016322
92 Ar 6.74717 1.99466 4.61898
93 Ar 6.56199 2.31062 8.81571
94 Ar 6.62495 6.65547 0.0869195
95 Ar 6.62262 6.63427 4.36205
96 Ar 6.53602 6.8138 8.70916
97 Ar 6.59248 11.0275 -0.0932397
98 Ar 6.76233 11.0338 4.25756
99 Ar 6.61634 11.1601 9.04674
100 Ar 11.1422 2.26272 -0.00274947
101 Ar 11.3212 2.56467 4.55383
102 Ar 11.1375 1.93089 9.07407
103 Ar 11.1829 6.90379 0.0904144
104 Ar 10.9163 6.57495 4.65887
105 Ar 11.2368 6.78032 8.95992
106 Ar 11.1889 11.0061 0.121146
107 Ar 11.0746 10.9506 4.41472
108 Ar 11.2241 10.9355 8.78982
ITEM: TIMESTEP
20080
ITEM: NUMBER OF ATOMS
108
ITEM: BOX BOUNDS pp pp pp
0.0000000000000000e+00 1.3349999400000000e+01
0.0000000000000000e+00 1.3349999400000000e+01
0.0000000000000000e+00 1.3349999400000000e+01
ITEM: ATOMS id element xu yu zu
1 Ar 0.067361 -0.109522 0.15231
2 Ar -0.0581384 -0.180119 4.33199
3 Ar 0.00628565 -0.0177287 8.92299
4 Ar 0.0154252 4.61778 0.0773428
5 Ar 0.371261 4.50958 4.47624
6 Ar -0.0899271 4.40243 8.99968
7 Ar 0.102826 8.89087 0.0265016
8 Ar -0.039095 8.5889 4.45323
9 Ar 0.149875 8.8686 8.91487
10 Ar 4.31074 0.161535 0.0430713
11 Ar 4.40147 -0.0980391 4.28687
12 Ar 4.16022 0.153666 8.97259
13 Ar 4.66029 4.40759 -0.0408515
14 Ar 4.37049 4.44891 4.41915
15 Ar 4.43297 4.50242 8.60382
16 Ar 4.50972 8.81323 -0.140442
17 Ar 4.28006 8.98322 4.39077
18 Ar 4.21211 9.04448 8.79912
19 Ar 9.03939 0.0250573 -0.132459
20 Ar 8.92369 -0.00248488 4.46215
21 Ar 8.87894 -0.0750786 9.12993
22 Ar 8.97001 4.5214 -0.0312376
23 Ar 8.81997 4.51606 4.54145
24 Ar 8.73325 4.54382 9.08859
25 Ar 8.79965 8.94896 -0.0879487
26 Ar 8.88966 8.84115 4.54018
27 Ar 8.79989 8.80864 8.6575
28 Ar -0.00649114 2.40898 2.28364
29 Ar -0.0351908 2.19625 6.63846
30 Ar 0.0928566 2.14356 11.1495
31 Ar 0.0956158 6.66453 2.27974
32 Ar 0.0254025 6.42457 6.75701
33 Ar 0.0526641 6.86833 11.1945
34 Ar -0.000381505 10.9337 2.27519
35 Ar -0.0106776 11.0206 6.50825
36 Ar 0.0379332 11.0446 11.0277
37 Ar 4.48333 2.34371 2.29333
38 Ar 4.32631 2.09935 6.64521