ITEM: TIMESTEP
58000
ITEM: NUMBER OF ATOMS
108
ITEM: BOX BOUNDS pp pp pp
0.0000000000000000e+00 1.3349999400000000e+01
0.0000000000000000e+00 1.3349999400000000e+01
0.0000000000000000e+00 1.3349999400000000e+01
ITEM: ATOMS id element xu yu zu
1 Ar -0.00159768 -0.103461 -0.0434525
2 Ar 0.0432361 -0.14917 4.34012
3 Ar -0.0852118 -0.0576361 9.18424
4 Ar 0.0348522 4.54423 0.0438499
5 Ar 0.113124 4.66228 4.59282
6 Ar 0.105478 4.39957 8.9862
7 Ar 0.101023 8.8179 0.105961
8 Ar 0.0280965 8.92094 4.41942
9 Ar 0.0285207 8.88453 8.77603
10 Ar 4.48176 0.160815 0.163393
11 Ar 4.41783 -0.0766854 4.48316
12 Ar 4.51983 0.239124 8.88315
13 Ar 4.29158 4.54428 -0.0590951
14 Ar 4.51531 4.46453 4.31968
15 Ar 4.63855 4.21008 8.91152
16 Ar 4.36895 9.02522 -0.165814
17 Ar 4.49361 9.02518 4.40768
18 Ar 4.52756 9.03446 8.745
19 Ar 8.78811 -0.0551267 0.119295
20 Ar 9.02123 -0.0298329 4.51026
21 Ar 8.78827 -0.0648261 8.88447
22 Ar 9.00844 4.38308 -0.0684931
23 Ar 9.04651 4.28039 4.38534
24 Ar 8.59274 4.40231 9.21318
25 Ar 8.83061 8.80862 -0.135752
26 Ar 8.99658 8.87137 4.60496
27 Ar 8.77129 8.87709 8.96269
28 Ar -0.0235956 2.31664 2.23545
29 Ar 0.0868575 2.23684 6.60808
30 Ar -0.0942004 2.25317 11.185
31 Ar -0.15352 6.63128 2.34311
32 Ar -0.0781913 6.72596 6.59273
33 Ar 0.200887 6.79921 11.0717
34 Ar 0.135762 11.0836 2.16865
35 Ar -0.0494243 11.0906 6.69472
36 Ar -0.0121429 11.0696 10.9981
37 Ar 4.37827 2.38119 2.23669
38 Ar 4.30091 2.2161 6.54136
39 Ar 4.50444 2.1393 11.2009
40 Ar 4.51947 6.63019 2.09668
41 Ar 4.56514 6.74445 6.48873
42 Ar 4.23511 6.80374 11.1383
43 Ar 4.21303 11.0691 2.22376
44 Ar 4.28012 11.2743 6.64183
45 Ar 4.52206 11.334 11.1144
46 Ar 8.95366 1.94254 2.28243
47 Ar 8.91181 2.32871 6.68781
48 Ar 8.74679 2.17583 11.1582
49 Ar 9.07705 6.69521 2.03209
50 Ar 8.88016 6.51641 6.80698
51 Ar 8.82792 6.73774 10.9685
52 Ar 8.92056 10.959 2.07278
53 Ar 8.87959 11.0987 6.66461
54 Ar 8.83783 11.1531 11.1862
55 Ar 2.21301 0.209101 2.49185
56 Ar 2.18832 -0.0385554 6.66179
57 Ar 2.19596 0.0432191 11.0167
58 Ar 2.1517 4.42418 2.17775
59 Ar 2.39725 4.50026 6.65965
60 Ar 2.29066 4.28905 11.0695
61 Ar 2.42186 8.87291 2.1561
62 Ar 2.28292 8.77539 6.67456
63 Ar 2.28549 9.1846 11.0401
64 Ar 6.52771 -0.0706333 2.21641
65 Ar 6.57922 0.0268983 6.56231
66 Ar 6.42211 0.0482007 11.3253
67 Ar 6.85114 4.44381 1.98363
68 Ar 6.45938 4.5199 6.73653
69 Ar 6.4823 4.46559 11.2005
70 Ar 6.73095 8.87395 2.27631
71 Ar 6.62799 8.79917 6.59702
72 Ar 6.5507 8.95845 10.9428
73 Ar 11.2013 -0.170319 2.0618
74 Ar 11.3564 0.123365 6.81472
75 Ar 11.0108 -0.0389997 11.3287
76 Ar 11.1225 4.66935 2.13335
77 Ar 11.1275 4.53931 6.61258
78 Ar 11.114 4.39902 11.2055
79 Ar 11.0991 9.04106 2.23332
80 Ar 11.141 8.82893 6.81477
81 Ar 11.2712 8.8307 11.1428
82 Ar 2.02293 2.02023 0.130173
83 Ar 2.20591 2.38049 4.38358
84 Ar 2.1469 2.29055 8.8143
85 Ar 2.0195 6.66263 0.112068
86 Ar 2.18569 6.62907 4.42988
87 Ar 2.49741 6.60296 8.91016
88 Ar 2.41684 11.1796 -0.00081512
89 Ar 2.28262 11.0966 4.46006
90 Ar 2.22623 11.1707 8.85707
91 Ar 6.70303 2.41437 0.0529086
92 Ar 6.66172 2.40791 4.47864
93 Ar 6.79857 2.10176 8.86155
94 Ar 6.73413 6.70124 0.0954714
95 Ar 6.64667 6.50103 4.45752
96 Ar 6.48557 6.71694 8.96774
97 Ar 6.73699 11.2094 0.160862
98 Ar 6.80392 11.1475 4.51057
99 Ar 6.57946 11.2044 8.84842
100 Ar 11.124 2.04333 -0.00945285
101 Ar 11.1698 2.18921 4.38968
102 Ar 11.0684 2.21706 8.85271
103 Ar 11.2289 6.54294 -0.0964347
104 Ar 11.0893 6.73077 4.51971
105 Ar 11.205 6.46555 9.11655
106 Ar 11.1371 11.0144 0.0584583
107 Ar 11.2126 11.1086 4.54601
108 Ar 11.2257 11.0268 8.6968
ITEM: TIMESTEP
58010
ITEM: NUMBER OF ATOMS
108
ITEM: BOX BOUNDS pp pp pp
0.0000000000000000e+00 1.3349999400000000e+01
0.0000000000000000e+00 1.3349999400000000e+01
0.0000000000000000e+00 1.3349999400000000e+01
ITEM: ATOMS id element xu yu zu
1 Ar 0.00377532 -0.100627 -0.052122
2 Ar 0.0556646 -0.135796 4.33173
3 Ar -0.085644 -0.0432938 9.20282
4 Ar 0.0462661 4.54229 0.0369792
5 Ar 0.115666 4.651 4.5903
6 Ar 0.0853868 4.42121 8.98108
7 Ar 0.0973621 8.80525 0.10089
8 Ar 0.0462965 8.90912 4.42154
9 Ar 0.0178021 8.88358 8.77381
10 Ar 4.47205 0.141941 0.148158
11 Ar 4.42425 -0.0663642 4.46283
12 Ar 4.50429 0.263635 8.87795
13 Ar 4.3178 4.54915 -0.0699874
14 Ar 4.52789 4.44973 4.31848
15 Ar 4.63687 4.20139 8.91785
16 Ar 4.37108 9.02742 -0.152778
17 Ar 4.47288 9.02159 4.40612
18 Ar 4.51385 9.04509 8.75556
19 Ar 8.78983 -0.0632767 0.140435
20 Ar 9.01584 -0.0391939 4.50724
21 Ar 8.78378 -0.0450608 8.89477
22 Ar 9.00239 4.39346 -0.0770477
23 Ar 9.05611 4.29307 4.37497
24 Ar 8.57794 4.38869 9.21313
25 Ar 8.81855 8.81986 -0.158746
26 Ar 8.97967 8.86776 4.59487
27 Ar 8.79981 8.90192 8.96796
28 Ar -0.0252469 2.30909 2.23464
29 Ar 0.0746752 2.24713 6.60753
30 Ar -0.0750683 2.2447 11.1687
31 Ar -0.160804 6.64041 2.3457
32 Ar -0.0757416 6.72667 6.58316
33 Ar 0.208787 6.81587 11.0746
34 Ar 0.117281 11.0653 2.1716
35 Ar -0.0643371 11.1014 6.67838
36 Ar -0.0188027 11.075 11.005
37 Ar 4.3754 2.38386 2.22729
38 Ar 4.27384 2.19753 6.51654
39 Ar 4.50068 2.16037 11.1868
40 Ar 4.52712 6.63165 2.06299
41 Ar 4.57452 6.75042 6.48968
42 Ar 4.24961 6.80838 11.1475
43 Ar 4.21453 11.0736 2.23892
44 Ar 4.28182 11.2673 6.6626
45 Ar 4.5178 11.3306 11.1089
46 Ar 8.96935 1.9422 2.29606
47 Ar 8.89532 2.33448 6.69834
48 Ar 8.75998 2.14837 11.1701
49 Ar 9.0751 6.70446 2.04202
50 Ar 8.88369 6.51924 6.80856
51 Ar 8.81829 6.7451 10.9811
52 Ar 8.92606 10.9598 2.08418
53 Ar 8.85938 11.0977 6.66786
54 Ar 8.84614 11.1447 11.1868
55 Ar 2.20718 0.182524 2.50969
56 Ar 2.19259 -0.0626673 6.63571
57 Ar 2.20492 0.0401321 11.048
58 Ar 2.152 4.44318 2.16863
59 Ar 2.39632 4.50801 6.65915
60 Ar 2.27463 4.29354 11.086
61 Ar 2.44214 8.86669 2.14891
62 Ar 2.28517 8.77507 6.67558
63 Ar 2.28483 9.19383 11.0559
64 Ar 6.5301 -0.0527449 2.2147
65 Ar 6.57959 0.0218661 6.56945
66 Ar 6.42365 0.0549462 11.3153
67 Ar 6.85142 4.43796 1.99391
68 Ar 6.46247 4.51131 6.73603
69 Ar 6.47031 4.43082 11.2072
70 Ar 6.72474 8.89626 2.30645
71 Ar 6.6495 8.80294 6.60353
72 Ar 6.54318 8.95247 10.9307
73 Ar 11.1916 -0.181737 2.07804
74 Ar 11.3513 0.118509 6.81468
75 Ar 11.0047 -0.0480634 11.2959
76 Ar 11.1248 4.66709 2.12089
77 Ar 11.1235 4.52687 6.60427
78 Ar 11.1461 4.39839 11.197
79 Ar 11.1059 9.04728 2.23743
80 Ar 11.1488 8.82696 6.81677
81 Ar 11.2528 8.85407 11.1525
82 Ar 2.01635 2.00709 0.143449
83 Ar 2.19128 2.39418 4.39119
84 Ar 2.15036 2.28883 8.83163
85 Ar 2.01478 6.63447 0.101153
86 Ar 2.2028 6.63143 4.41322
87 Ar 2.49372 6.6093 8.90587
88 Ar 2.4008 11.1723 -0.00720711
89 Ar 2.3015 11.1011 4.46515
90 Ar 2.21394 11.1472 8.85268
91 Ar 6.6927 2.40146 0.0451084
92 Ar 6.67365 2.40481 4.47615
93 Ar 6.81143 2.12078 8.85315
94 Ar 6.71701 6.69938 0.119829
95 Ar 6.66386 6.49618 4.44559
96 Ar 6.50701 6.69794 8.96515
97 Ar 6.74005 11.1793 0.14602
98 Ar 6.78804 11.1467 4.50361
99 Ar 6.57793 11.215 8.8572
100 Ar 11.1222 2.0337 -0.00692389
101 Ar 11.1767 2.21559 4.40155
102 Ar 11.0726 2.21934 8.85489
103 Ar 11.249 6.54576 -0.0959668
104 Ar 11.0963 6.7311 4.50697
105 Ar 11.2237 6.46068 9.1059
106 Ar 11.13 11.0176 0.0819596
107 Ar 11.2025 11.1153 4.55816
108 Ar 11.2187 11.0488 8.69768
ITEM: TIMESTEP
58020
ITEM: NUMBER OF ATOMS
108
ITEM: BOX BOUNDS pp pp pp
0.0000000000000000e+00 1.3349999400000000e+01
0.0000000000000000e+00 1.3349999400000000e+01
0.0000000000000000e+00 1.3349999400000000e+01
ITEM: ATOMS id element xu yu zu
1 Ar 0.00964248 -0.0991764 -0.0605971
2 Ar 0.06549 -0.120455 4.326
3 Ar -0.0857917 -0.0269267 9.217
4 Ar 0.0567605 4.53671 0.0281836
5 Ar 0.115412 4.63521 4.58566
6 Ar 0.0644371 4.44397 8.97393
7 Ar 0.0924211 8.79521 0.0948451
8 Ar 0.0647779 8.89774 4.42358
9 Ar 0.00882342 8.88122 8.7735
10 Ar 4.45977 0.121953 0.132985
11 Ar 4.43191 -0.0541637 4.44117
12 Ar 4.48695 0.28541 8.8719
13 Ar 4.34398 4.55241 -0.0799912
14 Ar 4.53858 4.43634 4.31748
15 Ar 4.63133 4.19429 8.92463
16 Ar 4.3768 9.02752 -0.138289
17 Ar 4.45301 9.01587 4.40538
18 Ar 4.49813 9.05472 8.76686
19 Ar 8.79216 -0.0704578 0.159192
20 Ar 9.01001 -0.0487147 4.50458
21 Ar 8.78193 -0.0262286 8.90516
22 Ar 8.9959 4.4042 -0.0860415
23 Ar 9.06356 4.3088 4.36395
24 Ar 8.5676 4.37636 9.20905
25 Ar 8.80767 8.8318 -0.181459
26 Ar 8.96173 8.86351 4.5831
27 Ar 8.83022 8.92772 8.97121
28 Ar -0.0295578 2.30126 2.23472
29 Ar 0.0622175 2.25807 6.60743
30 Ar -0.0553687 2.23604 11.1526
31 Ar -0.165333 6.65226 2.34738
32 Ar -0.0711211 6.72707 6.57737
33 Ar 0.216873 6.83104 11.0769
34 Ar 0.0997789 11.047 2.17472
35 Ar -0.0755614 11.1125 6.66109
36 Ar -0.0261916 11.0795 11.0153
37 Ar 4.37446 2.38513 2.2171
38 Ar 4.24921 2.17893 6.49265
39 Ar 4.49392 2.18322 11.1737
40 Ar 4.53353 6.63396 2.03184
41 Ar 4.58056 6.75563 6.49246
42 Ar 4.26627 6.81187 11.1584
43 Ar 4.22178 11.0812 2.2538
44 Ar 4.28722 11.258 6.6842
45 Ar 4.5118 11.3251 11.1031
46 Ar 8.98429 1.94538 2.30889
47 Ar 8.87909 2.33936 6.70843
48 Ar 8.77488 2.11985 11.1827
49 Ar 9.07085 6.71519 2.05483
50 Ar 8.88666 6.52272 6.81036
51 Ar 8.80903 6.75128 10.9968
52 Ar 8.93081 10.9626 2.09979
53 Ar 8.84012 11.0974 6.67264
54 Ar 8.85454 11.1362 11.1862
55 Ar 2.20252 0.152964 2.52283
56 Ar 2.19437 -0.084473 6.61052
57 Ar 2.2152 0.0370831 11.0808
58 Ar 2.15301 4.46331 2.16035
59 Ar 2.39422 4.51687 6.65961
60 Ar 2.25821 4.29919 11.1037
61 Ar 2.45821 8.85818 2.14315
62 Ar 2.28657 8.77602 6.67603
63 Ar 2.28352 9.19976 11.0715
64 Ar 6.53401 -0.033472 2.21614
65 Ar 6.58166 0.0176735 6.57704
66 Ar 6.43176 0.0613262 11.3037
67 Ar 6.85105 4.43285 2.00909
68 Ar 6.46945 4.5007 6.73445
69 Ar 6.45966 4.39832 11.2153
70 Ar 6.71779 8.91806 2.3364
71 Ar 6.6727 8.80872 6.61052
72 Ar 6.53606 8.94688 10.9226
73 Ar 11.1819 -0.19204 2.09767
74 Ar 11.3433 0.112294 6.81225
75 Ar 10.9985 -0.0581875 11.2603
76 Ar 11.1271 4.65819 2.11073
77 Ar 11.1201 4.51245 6.59838
78 Ar 11.178 4.39638 11.1875
79 Ar 11.114 9.04993 2.24228
80 Ar 11.1544 8.82374 6.81709
81 Ar 11.2327 8.87807 11.1615
82 Ar 2.01277 1.99701 0.153929
83 Ar 2.17601 2.40728 4.40034
84 Ar 2.15453 2.28499 8.84928
85 Ar 2.01448 6.60746 0.0891411
86 Ar 2.22277 6.63595 4.39546
87 Ar 2.48749 6.61583 8.89964
88 Ar 2.38055 11.1674 -0.0143847
89 Ar 2.31706 11.1044 4.47061
90 Ar 2.20173 11.125 8.84774
91 Ar 6.68178 2.3847 0.037319
92 Ar 6.68608 2.39893 4.47261
93 Ar 6.82175 2.13976 8.84469
94 Ar 6.69928 6.69827 0.139751
95 Ar 6.68464 6.49314 4.43098
96 Ar 6.52824 6.67823 8.96165
97 Ar 6.73944 11.1464 0.128803
98 Ar 6.77068 11.1456 4.49495
99 Ar 6.57743 11.2262 8.86529
100 Ar 11.1201 2.02751 -0.00285614
101 Ar 11.1853 2.2413 4.41379
102 Ar 11.0767 2.22334 8.8591
103 Ar 11.2677 6.55308 -0.0970659
104 Ar 11.1019 6.73142 4.49341
105 Ar 11.2409 6.45798 9.09249
106 Ar 11.1238 11.0206 0.10139
107 Ar 11.1909 11.122 4.56921
108 Ar 11.2081 11.0726 8.70321
ITEM: TIMESTEP
58030
ITEM: NUMBER OF ATOMS
108
ITEM: BOX BOUNDS pp pp pp
0.0000000000000000e+00 1.3349999400000000e+01
0.0000000000000000e+00 1.3349999400000000e+01
0.0000000000000000e+00 1.3349999400000000e+01
ITEM: ATOMS id element xu yu zu
1 Ar 0.0153701 -0.0992345 -0.0685825
2 Ar 0.0721404 -0.103451 4.32316
3 Ar -0.0852554 -0.0090271 9.22642
4 Ar 0.0658886 4.52729 0.0177032
5 Ar 0.112513 4.61571 4.57887
6 Ar 0.0435158 4.4672 8.96478
7 Ar 0.0864702 8.78787 0.0879948
8 Ar 0.0833576 8.88715 4.42553
9 Ar 0.00154764 8.87776 8.77512
10 Ar 4.44533 0.101027 0.118062
11 Ar 4.44089 -0.0403548 4.41877
12 Ar 4.46815 0.304208 8.86513
13 Ar 4.36959 4.55385 -0.0888494
14 Ar 4.54734 4.4247 4.31668
15 Ar 4.62193 4.18905 8.93134
16 Ar 4.38598 9.02574 -0.122632
17 Ar 4.43444 9.0079 4.40578
18 Ar 4.48092 9.06291 8.77876
19 Ar 8.79498 -0.0768081 0.17529
20 Ar 9.00375 -0.0581494 4.50243
21 Ar 8.78264 -0.00866338 8.9154
22 Ar 8.98908 4.4152 -0.0955406
23 Ar 9.06875 4.32736 4.3525
24 Ar 8.56225 4.3658 9.20159
25 Ar 8.79794 8.84404 -0.203106
26 Ar 8.9433 8.85871 4.56991
27 Ar 8.86204 8.95392 8.97265
28 Ar -0.0363625 2.29326 2.23564
29 Ar 0.0498449 2.26933 6.60816
30 Ar -0.0354291 2.22742 11.1373
31 Ar -0.166964 6.66645 2.34807
32 Ar -0.064351 6.72695 6.57512
33 Ar 0.224872 6.84473 11.0782
34 Ar 0.0836294 11.0289 2.17814
35 Ar -0.0830248 11.1236 6.64327
36 Ar -0.0342245 11.0832 11.0287
37 Ar 4.37511 2.38489 2.20618
38 Ar 4.22738 2.16068 6.47012
39 Ar 4.48411 2.20694 11.1617
40 Ar 4.53837 6.63701 2.00409
41 Ar 4.58363 6.76003 6.49694
42 Ar 4.2847 6.81416 11.1704
43 Ar 4.23452 11.0919 2.26775
44 Ar 4.29641 11.2466 6.70612
45 Ar 4.50429 11.3179 11.0969
46 Ar 8.99838 1.95214 2.32073
47 Ar 8.86356 2.34331 6.7176
48 Ar 8.79133 2.09094 11.1957
49 Ar 9.06453 6.7273 2.06997
50 Ar 8.88921 6.52677 6.81235
51 Ar 8.80041 6.75596 11.0149
52 Ar 8.93447 10.9673 2.11935
53 Ar 8.82201 11.0977 6.67879
54 Ar 8.86284 11.128 11.1842
55 Ar 2.19923 0.121138 2.53087
56 Ar 2.19352 -0.103608 6.58669
57 Ar 2.22671 0.0339486 11.1142
58 Ar 2.15483 4.48398 2.15315
59 Ar 2.39106 4.52673 6.66108
60 Ar 2.24159 4.3061 11.1223
61 Ar 2.46973 8.84762 2.13863
62 Ar 2.28704 8.77818 6.6759
63 Ar 2.28157 9.20217 11.0866
64 Ar 6.53931 -0.0132569 2.22018
65 Ar 6.5852 0.0144022 6.58495
66 Ar 6.44584 0.0672026 11.2906
67 Ar 6.85019 4.42816 2.02861
68 Ar 6.47993 4.4883 6.73172
69 Ar 6.45108 4.36869 11.2243
70 Ar 6.71014 8.939 2.36564
71 Ar 6.69695 8.81628 6.61811
72 Ar 6.52955 8.9417 10.9184
73 Ar 11.1726 -0.200951 2.12049
74 Ar 11.3327 0.105129 6.80747
75 Ar 10.9922 -0.0691777 11.2226
76 Ar 11.1293 4.64299 2.10271
77 Ar 11.1175 4.49651 6.59496
78 Ar 11.2091 4.39311 11.1774
79 Ar 11.1229 9.04888 2.24796
80 Ar 11.1576 8.81952 6.81561
81 Ar 11.2114 8.90227 11.1695
82 Ar 2.01236 1.99017 0.16179
83 Ar 2.16026 2.41948 4.41027
84 Ar 2.15894 2.27938 8.8668
85 Ar 2.01869 6.58238 0.0761357
86 Ar 2.24525 6.64223 4.37687
87 Ar 2.47906 6.62248 8.89195
88 Ar 2.35657 11.1649 -0.0217164
89 Ar 2.32899 11.1064 4.4764
90 Ar 2.18938 11.1046 8.84239
91 Ar 6.67059 2.36437 0.0300288
92 Ar 6.69894 2.39029 4.46812
93 Ar 6.82888 2.15805 8.83643
94 Ar 6.68182 6.69813 0.154862
95 Ar 6.70843 6.4919 4.41409
96 Ar 6.54893 6.65828 8.95732
97 Ar 6.73536 11.1116 0.109691
98 Ar 6.75192 11.1442 4.48492
99 Ar 6.57795 11.2379 8.87277
100 Ar 11.1179 2.02451 0.00238202
101 Ar 11.1953 2.26585 4.42628
102 Ar 11.0805 2.22898 8.86512
103 Ar 11.2847 6.56466 -0.0997061
104 Ar 11.106 6.73176 4.47942
105 Ar 11.256 6.45778 9.07671
106 Ar 11.1185 11.0234 0.116353
107 Ar 11.1778 11.1285 4.57903
108 Ar 11.1941 11.0975 8.71304
ITEM: TIMESTEP
58040
ITEM: NUMBER OF ATOMS
108
ITEM: BOX BOUNDS pp pp pp
0.0000000000000000e+00 1.3349999400000000e+01
0.0000000000000000e+00 1.3349999400000000e+01
0.0000000000000000e+00 1.3349999400000000e+01
ITEM: ATOMS id element xu yu zu
1 Ar 0.0203415 -0.1008 -0.0757846
2 Ar 0.0751823 -0.0850784 4.32331
3 Ar -0.0836456 0.0098043 9.23079
4 Ar 0.0732264 4.514 0.00586015
5 Ar 0.107149 4.59348 4.56992
6 Ar 0.0235341 4.49026 8.95369
7 Ar 0.0798119 8.78326 0.0804902
8 Ar 0.101835 8.87763 4.42747
9 Ar -0.00413867 8.87353 8.77866
10 Ar 4.42925 0.0793383 0.103554
11 Ar 4.45121 -0.0252035 4.39623
12 Ar 4.44828 0.319794 8.8578
13 Ar 4.3941 4.55329 -0.0962649
14 Ar 4.55418 4.41507 4.31609
15 Ar 4.60883 4.18599 8.93747
16 Ar 4.39835 9.02238 -0.106081
17 Ar 4.41756 8.99768 4.40752
18 Ar 4.46277 9.06927 8.79115
19 Ar 8.79819 -0.0825075 0.188557
20 Ar 8.99707 -0.0672435 4.50091
21 Ar 8.78577 0.00737891 8.92519
22 Ar 8.982 4.42637 -0.105536
23 Ar 9.07163 4.34845 4.34091
24 Ar 8.56236 4.3574 9.19145
25 Ar 8.78935 8.85623 -0.222892
26 Ar 8.92487 8.8535 4.55564
27 Ar 8.89475 8.97992 8.97251
28 Ar -0.0453756 2.28515 2.23726
29 Ar 0.0378805 2.28055 6.61012
30 Ar -0.0155698 2.21908 11.1231
31 Ar -0.165644 6.68245 2.34766
32 Ar -0.0555038 6.72608 6.57607
33 Ar 0.232495 6.85694 11.0786
34 Ar 0.0691532 11.0113 2.18203
35 Ar -0.0868189 11.1344 6.62541
36 Ar -0.0427796 11.0861 11.0449
37 Ar 4.377 2.38308 2.19462
38 Ar 4.20861 2.14319 6.44932
39 Ar 4.47129 2.23051 11.1513
40 Ar 4.54134 6.64067 1.98054
41 Ar 4.58427 6.76353 6.50297
42 Ar 4.30451 6.81518 11.1831
43 Ar 4.25234 11.1051 2.28018
44 Ar 4.30933 11.2337 6.72783
45 Ar 4.49553 11.3092 11.0904
46 Ar 9.01158 1.96245 2.33139
47 Ar 8.84921 2.3463 6.72543
48 Ar 8.80911 2.06235 11.2092
49 Ar 9.05642 6.74064 2.08685
50 Ar 8.89151 6.53133 6.81451
51 Ar 8.79265 6.75887 11.0349
52 Ar 8.93675 10.9737 2.14251
53 Ar 8.80527 11.0988 6.68611
54 Ar 8.87081 11.1204 11.1809
55 Ar 2.1974 0.0877745 2.53348
56 Ar 2.19007 -0.119807 6.56463
57 Ar 2.23928 0.0306394 11.1475
58 Ar 2.15749 4.50458 2.14722
59 Ar 2.38695 4.53744 6.66356
60 Ar 2.22498 4.31434 11.1413
61 Ar 2.4765 8.83539 2.13513
62 Ar 2.28648 8.78146 6.67517
63 Ar 2.27906 9.20091 11.1014
64 Ar 6.54593 0.00747352 2.2262
65 Ar 6.58999 0.0121133 6.59304
66 Ar 6.46507 0.0724277 11.2761
67 Ar 6.84898 4.42357 2.05176
68 Ar 6.49339 4.47438 6.72777
69 Ar 6.44535 4.34242 11.2337
70 Ar 6.7018 8.9587 2.39359
71 Ar 6.72156 8.8253 6.62641
72 Ar 6.52383 8.93694 10.9177
73 Ar 11.164 -0.20824 2.14621
74 Ar 11.3194 0.097445 6.80047
75 Ar 10.9861 -0.0808032 11.1838
76 Ar 11.1316 4.62208 2.09655
77 Ar 11.1154 4.47955 6.59402
78 Ar 11.2389 4.38877 11.167
79 Ar 11.1325 9.04415 2.25449
80 Ar 11.1583 8.81462 6.81225
81 Ar 11.1891 8.92623 11.1764
82 Ar 2.0152 1.98671 0.167282
83 Ar 2.14422 2.43045 4.4202
84 Ar 2.16318 2.2724 8.88379
85 Ar 2.02738 6.55995 0.0622179
86 Ar 2.2698 6.64979 4.35779
87 Ar 2.46875 6.62916 8.88331
88 Ar 2.32942 11.1643 -0.0285648
89 Ar 2.33714 11.1068 4.48243
90 Ar 2.17664 11.0865 8.8368
91 Ar 6.65943 2.34083 0.0237015
92 Ar 6.71217 2.37897 4.46282
93 Ar 6.83222 2.17503 8.82868
94 Ar 6.66554 6.69911 0.164887
95 Ar 6.73453 6.4924 4.39546
96 Ar 6.56876 6.63856 8.95229
97 Ar 6.72809 11.0758 0.0891832
98 Ar 6.73188 11.1427 4.47392
99 Ar 6.57945 11.25 8.87976
100 Ar 11.1157 2.02438 0.00841836
101 Ar 11.2063 2.28882 4.43887
102 Ar 11.084 2.23616 8.87271
103 Ar 11.2996 6.58007 -0.103759
104 Ar 11.1087 6.73212 4.4654
105 Ar 11.2684 6.46042 9.05902
106 Ar 11.114 11.0264 0.126662
107 Ar 11.1634 11.1345 4.58752
108 Ar 11.1773 11.1234 8.72667
ITEM: TIMESTEP
58050
ITEM: NUMBER OF ATOMS
108
ITEM: BOX BOUNDS pp pp pp
0.0000000000000000e+00 1.3349999400000000e+01
0.0000000000000000e+00 1.3349999400000000e+01
0.0000000000000000e+00 1.3349999400000000e+01
ITEM: ATOMS id element xu yu zu
1 Ar 0.0239909 -0.103736 -0.0819179
2 Ar 0.0743664 -0.0656181 4.32644
3 Ar -0.0806129 0.0288943 9.22992
4 Ar 0.0784115 4.49698 -0.00694556
5 Ar 0.0995126 4.5696 4.55886
6 Ar 0.0053773 4.51246 8.94077
7 Ar 0.0727609 8.78138 0.072463
8 Ar 0.119993 8.8694 4.42945
9 Ar -0.00841524 8.86891 8.78403
10 Ar 4.41215 0.0570593 0.0896139
11 Ar 4.46272 -0.00896522 4.37411
12 Ar 4.42775 0.331944 8.8501
13 Ar 4.41704 4.5506 -0.101914
14 Ar 4.55916 4.40763 4.31577
15 Ar 4.59227 4.18541 8.94252
16 Ar 4.41345 9.0178 -0.0888933
17 Ar 4.40269 8.98529 4.41076
18 Ar 4.44421 9.07342 8.80399
19 Ar 8.80169 -0.0877614 0.198927
20 Ar 8.98993 -0.0757357 4.5001
21 Ar 8.7911 0.0217315 8.93422
22 Ar 8.97472 4.43761 -0.115943
23 Ar 9.07226 4.3717 4.32948
24 Ar 8.56825 4.35142 9.17933
25 Ar 8.78193 8.86802 -0.240039
26 Ar 8.90697 8.84803 4.54062
27 Ar 8.92775 9.00507 8.97106
28 Ar -0.0562116 2.27693 2.23939
29 Ar 0.0266158 2.2914 6.61368
30 Ar 0.00390251 2.21124 11.1105
31 Ar -0.161395 6.69966 2.34603
32 Ar -0.0447059 6.72424 6.57974
33 Ar 0.239448 6.86761 11.0778
34 Ar 0.0566024 10.9946 2.18651
35 Ar -0.0871843 11.1446 6.60801
36 Ar -0.0517058 11.0882 11.0633
37 Ar 4.37979 2.37973 2.18254
38 Ar 4.19313 2.12683 6.43061
39 Ar 4.45559 2.25295 11.1428
40 Ar 4.54216 6.6448 1.9619
41 Ar 4.58305 6.76607 6.51039
42 Ar 4.3253 6.81488 11.1958
43 Ar 4.27468 11.1204 2.29065
44 Ar 4.32578 11.2197 6.74879
45 Ar 4.4858 11.2994 11.0836
46 Ar 9.02387 1.97618 2.34075
47 Ar 8.83652 2.34825 6.7315
48 Ar 8.828 2.03485 11.223
49 Ar 9.04682 6.75497 2.1048
50 Ar 8.89373 6.5363 6.81676
51 Ar 8.78594 6.75982 11.0561
52 Ar 8.93747 10.9813 2.16876
53 Ar 8.79008 11.1007 6.69431
54 Ar 8.87819 11.114 11.1764
55 Ar 2.19696 0.0535666 2.53052
56 Ar 2.18421 -0.132893 6.54471
57 Ar 2.25267 0.0271046 11.1799
58 Ar 2.16099 4.52452 2.14276
59 Ar 2.38198 4.54877 6.66697
60 Ar 2.20858 4.32393 11.1603
61 Ar 2.47849 8.82206 2.13241
62 Ar 2.28486 8.78581 6.67383
63 Ar 2.27605 9.19591 11.1155
64 Ar 6.55382 0.028316 2.23358
65 Ar 6.59578 0.0108489 6.60118
66 Ar 6.4885 0.076843 11.2603
67 Ar 6.84755 4.41883 2.07768
68 Ar 6.5093 4.4593 6.72255
69 Ar 6.44321 4.3199 11.243
70 Ar 6.69279 8.9768 2.41965
71 Ar 6.74585 8.83544 6.63551
72 Ar 6.51913 8.93259 10.92
73 Ar 11.1565 -0.213734 2.17445
74 Ar 11.3036 0.0896727 6.79143
75 Ar 10.9804 -0.0928054 11.145
76 Ar 11.1339 4.59628 2.09193
77 Ar 11.1137 4.46213 6.59553
78 Ar 11.267 4.38361 11.1567
79 Ar 11.1423 9.03589 2.26181
80 Ar 11.1566 8.80939 6.80698
81 Ar 11.1665 8.94953 11.182
82 Ar 2.02121 1.98671 0.170712
83 Ar 2.12813 2.43985 4.42939
84 Ar 2.16683 2.26448 8.89986
85 Ar 2.04033 6.54079 0.0474559
86 Ar 2.29591 6.6581 4.33859
87 Ar 2.45689 6.63584 8.87425
88 Ar 2.29976 11.1653 -0.0343278
89 Ar 2.34156 11.1056 4.48858
90 Ar 2.16333 11.0711 8.83115
91 Ar 6.64857 2.3145 0.0187318
92 Ar 6.72564 2.36512 4.45686
93 Ar 6.8313 2.19013 8.82179
94 Ar 6.65134 6.70129 0.169674
95 Ar 6.76218 6.4946 4.37568
96 Ar 6.58746 6.61948 8.9467
97 Ar 6.71802 11.0399 0.067773
98 Ar 6.71071 11.1415 4.46244
99 Ar 6.58187 11.2621 8.88639
100 Ar 11.1138 2.02673 0.0148949
101 Ar 11.2179 2.30981 4.45139
102 Ar 11.0872 2.24468 8.88158
103 Ar 11.3121 6.59872 -0.109016
104 Ar 11.1101 6.73246 4.45177
105 Ar 11.2773 6.46617 9.03988
106 Ar 11.1104 11.0295 0.132351
107 Ar 11.1479 11.1396 4.59465
108 Ar 11.1585 11.1496 8.74351
ITEM: TIMESTEP
58060
ITEM: NUMBER OF ATOMS
108
ITEM: BOX BOUNDS pp pp pp
0.0000000000000000e+00 1.3349999400000000e+01
0.0000000000000000e+00 1.3349999400000000e+01
0.0000000000000000e+00 1.3349999400000000e+01
ITEM: ATOMS id element xu yu zu
1 Ar 0.0258292 -0.107775 -0.0867119
2 Ar 0.0696536 -0.0453363 4.33239
3 Ar -0.075877 0.0475421 9.2237
4 Ar 0.0811739 4.47658 -0.0202452
5 Ar 0.0897972 4.5452 4.54579
6 Ar -0.010151 4.5332 8.92616
7 Ar 0.0656251 8.78219 0.0640262
8 Ar 0.137604 8.86259 4.43158
9 Ar -0.0115146 8.86431 8.79108
10 Ar 4.39473 0.034365 0.0763947
11 Ar 4.4752 0.0081171 4.35296
12 Ar 4.40698 0.340444 8.84225
13 Ar 4.43799 4.54572 -0.105471
14 Ar 4.56239 4.40246 4.31577
15 Ar 4.57261 4.18761 8.94609
16 Ar 4.43069 9.01235 -0.0713031
17 Ar 4.39012 8.97093 4.41553
18 Ar 4.42573 9.07506 8.81723
19 Ar 8.80539 -0.0927857 0.206433
20 Ar 8.98225 -0.0833611 4.50007
21 Ar 8.79835 0.0343248 8.94214
22 Ar 8.96731 4.44879 -0.126609
23 Ar 9.07078 4.39664 4.31857
24 Ar 8.58012 4.34802 9.16588
25 Ar 8.77573 8.87913 -0.253828
26 Ar 8.89005 8.84252 4.52526
27 Ar 8.96043 9.02873 8.96856
28 Ar -0.068407 2.26859 2.2418
29 Ar 0.0163138 2.30154 6.61919
30 Ar 0.0227007 2.20409 11.0998
31 Ar -0.154303 6.7174 2.34307
32 Ar -0.0321374 6.72126 6.58559
33 Ar 0.245434 6.87669 11.0758
34 Ar 0.046147 10.9791 2.19172
35 Ar -0.084492 11.154 6.59154
36 Ar -0.0608317 11.0896 11.0834
37 Ar 4.38315 2.37488 2.17012
38 Ar 4.18111 2.11198 6.41432
39 Ar 4.4372 2.27332 11.1364
40 Ar 4.5407 6.64924 1.94872
41 Ar 4.58058 6.76759 6.51905
42 Ar 4.34668 6.8132 11.208
43 Ar 4.30088 11.1371 2.29881
44 Ar 4.3454 11.205 6.76849
45 Ar 4.47538 11.2888 11.0767
46 Ar 9.03523 1.99315 2.34869
47 Ar 8.8259 2.3491 6.73548
48 Ar 8.84774 2.00919 11.2369
49 Ar 9.03605 6.77002 2.12312
50 Ar 8.89601 6.54162 6.81901
51 Ar 8.78043 6.75869 11.0779
52 Ar 8.93653 10.9901 2.19751
53 Ar 8.77664 11.1036 6.70308
54 Ar 8.88467 11.1089 11.1707
55 Ar 2.19769 0.0191497 2.52202
56 Ar 2.17625 -0.142765 6.52727
57 Ar 2.26657 0.0233304 11.2107
58 Ar 2.16528 4.54323 2.13988
59 Ar 2.37625 4.56049 6.67113
60 Ar 2.19265 4.33483 11.1788
61 Ar 2.47581 8.80827 2.13025
62 Ar 2.28216 8.79115 6.67191
63 Ar 2.27268 9.1872 11.129
64 Ar 6.56294 0.0488914 2.24173
65 Ar 6.60233 0.0106348 6.60923
66 Ar 6.51511 0.0802842 11.2435
67 Ar 6.84598 4.41376 2.10543
68 Ar 6.52706 4.44345 6.716
69 Ar 6.4453 4.30138 11.2515
70 Ar 6.68309 8.99293 2.44319
71 Ar 6.76917 8.84631 6.64553
72 Ar 6.51565 8.92865 10.9247
73 Ar 11.1501 -0.21731 2.20471
74 Ar 11.2854 0.0822103 6.78055
75 Ar 10.9754 -0.104899 11.1069
76 Ar 11.1362 4.56655 2.0885
77 Ar 11.1122 4.44482 6.59943
78 Ar 11.2927 4.37794 11.1468
79 Ar 11.1519 9.0244 2.2698
80 Ar 11.1527 8.80419 6.7998
81 Ar 11.1441 8.97174 11.1862
82 Ar 2.03023 1.99018 0.172412
83 Ar 2.11229 2.44736 4.43722
84 Ar 2.16954 2.25609 8.91466
85 Ar 2.05718 6.52539 0.0319206
86 Ar 2.32304 6.66663 4.31968
87 Ar 2.44382 6.64247 8.86526
88 Ar 2.26829 11.1673 -0.0384733
89 Ar 2.34247 11.1027 4.49471
90 Ar 2.14931 11.0587 8.82563
91 Ar 6.63829 2.28587 0.0154093
92 Ar 6.73923 2.34895 4.4504
93 Ar 6.82581 2.20295 8.81611
94 Ar 6.64002 6.70466 0.169228
95 Ar 6.79054 6.49845 4.35543
96 Ar 6.60478 6.60142 8.9407
97 Ar 6.70556 11.005 0.0459293
98 Ar 6.68862 11.1409 4.45106
99 Ar 6.58515 11.2743 8.89283
100 Ar 11.1122 2.03115 0.0214799
101 Ar 11.2296 2.32846 4.46368
102 Ar 11.0898 2.25434 8.89143
103 Ar 11.3219 6.61991 -0.115215
104 Ar 11.1103 6.7327 4.43892
105 Ar 11.2823 6.47524 9.01977
106 Ar 11.1075 11.0331 0.133676
107 Ar 11.1315 11.1436 4.60041
108 Ar 11.1383 11.1759 8.76287
ITEM: TIMESTEP
58070
ITEM: NUMBER OF ATOMS
108
ITEM: BOX BOUNDS pp pp pp
0.0000000000000000e+00 1.3349999400000000e+01
0.0000000000000000e+00 1.3349999400000000e+01
0.0000000000000000e+00 1.3349999400000000e+01
ITEM: ATOMS id element xu yu zu
1 Ar 0.0254623 -0.112527 -0.0899203
2 Ar 0.0612156 -0.0244942 4.3409
3 Ar -0.0692501 0.065069 9.2121
4 Ar 0.081354 4.45332 -0.0335155
5 Ar 0.0781989 4.5214 4.53083
6 Ar -0.022387 4.55194 8.91005
7 Ar 0.0586874 8.78561 0.0552752
8 Ar 0.154423 8.85726 4.43397
9 Ar -0.0137063 8.86008 8.79963
10 Ar 4.37775 0.0114288 0.0640592
11 Ar 4.48829 0.0258111 4.33325
12 Ar 4.38638 0.345093 8.83444
13 Ar 4.45663 4.53862 -0.106637
14 Ar 4.56403 4.39954 4.31616
15 Ar 4.55027 4.19281 8.94785
16 Ar 4.44939 9.00634 -0.0535189
17 Ar 4.38007 8.95493 4.42178
18 Ar 4.4078 9.07393 8.83085
19 Ar 8.80924 -0.0977935 0.211204
20 Ar 8.97397 -0.0898571 4.50086
21 Ar 8.80717 0.0451895 8.94856
22 Ar 8.95985 4.45978 -0.137312
23 Ar 9.06743 4.42279 4.30855
24 Ar 8.59797 4.34715 9.15168
25 Ar 8.77083 8.88932 -0.263624
26 Ar 8.87456 8.83722 4.50997
27 Ar 8.99217 9.05026 8.96523
28 Ar -0.0814436 2.26005 2.2442
29 Ar 0.00721072 2.31067 6.62695
30 Ar 0.0405596 2.19775 11.0914
31 Ar -0.144502 6.73501 2.33869
32 Ar -0.0180307 6.71704 6.59306
33 Ar 0.250159 6.88405 11.0726
34 Ar 0.0378619 10.9651 2.19779
35 Ar -0.0792209 11.1622 6.57645
36 Ar -0.0699721 11.0904 11.1045
37 Ar 4.3868 2.36866 2.15757
38 Ar 4.17263 2.09897 6.40071
39 Ar 4.4164 2.29086 11.1323
40 Ar 4.53698 6.65379 1.94136
41 Ar 4.57744 6.76802 6.52882
42 Ar 4.36829 6.81009 11.2193
43 Ar 4.3302 11.1545 2.30445
44 Ar 4.36776 11.1901 6.78646
45 Ar 4.46453 11.2777 11.0696
46 Ar 9.04569 2.01307 2.3551
47 Ar 8.81774 2.34873 6.73714
48 Ar 8.86806 1.98609 11.2508
49 Ar 9.02446 6.78545 2.14105
50 Ar 8.89846 6.5472 6.82115
51 Ar 8.77621 6.75543 11.0996
52 Ar 8.93392 10.9996 2.22811
53 Ar 8.76511 11.1074 6.71207
54 Ar 8.88992 11.1057 11.1641
55 Ar 2.19926 -0.0149135 2.50821
56 Ar 2.16662 -0.149378 6.51258
57 Ar 2.28063 0.0193352 11.239
58 Ar 2.17024 4.5602 2.13865
59 Ar 2.36982 4.57228 6.67585
60 Ar 2.17745 4.34699 11.1961
61 Ar 2.46866 8.79473 2.12838
62 Ar 2.27841 8.79739 6.66947
63 Ar 2.26907 9.17491 11.1418
64 Ar 6.57334 0.0688413 2.25008
65 Ar 6.60941 0.0114807 6.61708
66 Ar 6.54384 0.0825918 11.2258
67 Ar 6.84431 4.40822 2.13404
68 Ar 6.5461 4.42726 6.7081
69 Ar 6.4521 4.28695 11.2587
70 Ar 6.67271 9.00675 2.4636
71 Ar 6.79093 8.85754 6.65653
72 Ar 6.51358 8.92511 10.9313
73 Ar 11.1451 -0.218905 2.23646
74 Ar 11.2651 0.0754039 6.7681
75 Ar 10.9715 -0.116763 11.0704
76 Ar 11.1385 4.53394 2.0859
77 Ar 11.1108 4.42818 6.60561
78 Ar 11.3158 4.3721 11.1376
79 Ar 11.1609 9.01011 2.27828
80 Ar 11.1469 8.79934 6.79073
81 Ar 11.1223 8.99245 11.1889
82 Ar 2.04197 1.99706 0.17272
83 Ar 2.097 2.45268 4.44318
84 Ar 2.17102 2.24765 8.92787
85 Ar 2.07744 6.51409 0.015704
86 Ar 2.3506 6.67487 4.3015
87 Ar 2.42985 6.64905 8.85682
88 Ar 2.23574 11.1697 -0.0405663
89 Ar 2.34024 11.098 4.50059
90 Ar 2.1345 11.0496 8.82042
91 Ar 6.62878 2.25542 0.0138922
92 Ar 6.75277 2.33074 4.44365
93 Ar 6.81561 2.21324 8.81196
94 Ar 6.63217 6.70914 0.163738
95 Ar 6.81874 6.50389 4.33537
96 Ar 6.62053 6.58471 8.93449
97 Ar 6.6912 10.9719 0.0240858
98 Ar 6.66585 11.1411 4.44038
99 Ar 6.58923 11.2861 8.89927
100 Ar 11.1111 2.03724 0.0278732
101 Ar 11.2408 2.34445 4.47554
102 Ar 11.0919 2.26486 8.90195
103 Ar 11.3289 6.6429 -0.12207
104 Ar 11.1095 6.73274 4.4272
105 Ar 11.283 6.48773 8.99918
106 Ar 11.1051 11.0371 0.131087
107 Ar 11.1145 11.1461 4.60487
108 Ar 11.1175 11.2016 8.784
ITEM: TIMESTEP
58080
ITEM: NUMBER OF ATOMS
108
ITEM: BOX BOUNDS pp pp pp
0.0000000000000000e+00 1.3349999400000000e+01
0.0000000000000000e+00 1.3349999400000000e+01
0.0000000000000000e+00 1.3349999400000000e+01
ITEM: ATOMS id element xu yu zu
1 Ar 0.0226017 -0.117508 -0.091331
2 Ar 0.0494089 -0.00335835 4.35158
3 Ar -0.0606537 0.080864 9.19519
4 Ar 0.0789053 4.42785 -0.0461992
5 Ar 0.0649224 4.49924 4.51415
6 Ar -0.030858 4.56827 8.8927
7 Ar 0.0521893 8.79154 0.0462921
8 Ar 0.170195 8.85339 4.43673
9 Ar -0.0152809 8.8566 8.80942
10 Ar 4.36194 -0.0115788 0.0527815
11 Ar 4.50155 0.0438911 4.31537
12 Ar 4.36634 0.345721 8.82687
13 Ar 4.47274 4.52937 -0.105177
14 Ar 4.56422 4.39877 4.31702
15 Ar 4.52575 4.20119 8.94761
16 Ar 4.46878 9.00001 -0.035722
17 Ar 4.37273 8.93769 4.42939
18 Ar 4.39079 9.06988 8.84484
19 Ar 8.81324 -0.102984 0.213447
20 Ar 8.96501 -0.0949716 4.50246
21 Ar 8.81717 0.0544549 8.95311
22 Ar 8.9524 4.47044 -0.147775
23 Ar 9.06253 4.44958 4.2998
24 Ar 8.62162 4.34862 9.13721
25 Ar 8.76731 8.89844 -0.268907
26 Ar 8.86088 8.83238 4.49523
27 Ar 9.02233 9.06907 8.96126
28 Ar -0.0947723 2.25122 2.24632
29 Ar -0.000486742 2.31852 6.63715
30 Ar 0.0572383 2.19227 11.0856
31 Ar -0.132164 6.7518 2.33282
32 Ar -0.00266789 6.71156 6.60155
33 Ar 0.253333 6.88955 11.0683
34 Ar 0.0317195 10.9528 2.2048
35 Ar -0.0719349 11.1691 6.56308
36 Ar -0.0789344 11.0907 11.126
37 Ar 4.39047 2.36119 2.14514
38 Ar 4.16772 2.08812 6.38999