ITEM: TIMESTEP
48000
ITEM: NUMBER OF ATOMS
108
ITEM: BOX BOUNDS pp pp pp
0.0000000000000000e+00 1.3349999400000000e+01
0.0000000000000000e+00 1.3349999400000000e+01
0.0000000000000000e+00 1.3349999400000000e+01
ITEM: ATOMS id element xu yu zu
1 Ar 0.121081 0.035243 -0.166735
2 Ar 0.012009 -0.107703 4.29734
3 Ar -0.207837 0.124639 8.8877
4 Ar 0.0803014 4.45312 -0.0188409
5 Ar 0.0579105 4.65302 4.52204
6 Ar 0.0157383 4.49022 8.95774
7 Ar 0.0734448 8.95316 -0.26539
8 Ar -0.163853 9.03079 4.33685
9 Ar -0.0644275 8.97801 9.12324
10 Ar 4.20701 -0.104106 0.119103
11 Ar 4.36223 0.0579261 4.39553
12 Ar 4.47331 0.0290619 9.03966
13 Ar 4.45052 4.47524 0.0679925
14 Ar 4.46707 4.39664 4.29819
15 Ar 4.54098 4.37112 8.84423
16 Ar 4.47149 8.89378 0.138161
17 Ar 4.42331 8.99437 4.51499
18 Ar 4.579 8.92941 8.93511
19 Ar 8.8474 -0.0444444 -0.0732028
20 Ar 8.92802 0.0381944 4.49156
21 Ar 8.82871 -0.0410325 8.83814
22 Ar 8.89272 4.38807 0.0469397
23 Ar 9.13564 4.32446 4.53959
24 Ar 8.83322 4.34618 9.06524
25 Ar 9.06873 9.02734 0.0670776
26 Ar 8.86614 8.81545 4.37669
27 Ar 8.91796 9.03157 9.05077
28 Ar 0.214085 2.30253 2.34434
29 Ar -0.0613032 2.38306 6.66976
30 Ar -0.0158669 2.35588 11.1682
31 Ar 0.0708798 6.60114 2.20827
32 Ar 0.102029 6.88104 6.61066
33 Ar 0.0604439 6.45687 11.2216
34 Ar 0.00429626 11.0608 1.98244
35 Ar 0.0875536 11.1937 6.75307
36 Ar 0.00603257 11.1658 11.0877
37 Ar 4.307 2.27112 2.20325
38 Ar 4.46331 2.14691 6.63863
39 Ar 4.65158 2.13432 11.2707
40 Ar 4.43001 6.68412 2.12291
41 Ar 4.50705 6.73199 6.64487
42 Ar 4.48348 6.5432 11.0095
43 Ar 4.29827 11.1211 2.38858
44 Ar 4.32696 11.2782 6.67239
45 Ar 4.45718 11.0374 11.1455
46 Ar 8.85639 2.0869 2.18316
47 Ar 8.814 2.30257 6.59851
48 Ar 8.97198 2.02892 11.0782
49 Ar 9.01552 6.79655 2.27485
50 Ar 8.9769 6.77992 6.67536
51 Ar 8.81155 6.74906 10.9592
52 Ar 8.74582 11.0468 2.31697
53 Ar 8.86329 11.1408 6.63456
54 Ar 8.83416 11.1806 11.0224
55 Ar 2.18439 0.0570239 2.40735
56 Ar 1.96328 0.274484 6.71511
57 Ar 2.13419 0.208204 11.0045
58 Ar 2.1823 4.41269 2.24258
59 Ar 2.34269 4.66147 6.69306
60 Ar 2.40852 4.47173 11.2445
61 Ar 2.12893 8.87304 2.38656
62 Ar 2.17192 8.87745 6.8111
63 Ar 2.23963 8.66884 11.0483
64 Ar 6.47148 0.0600267 2.13614
65 Ar 6.82403 0.0777384 6.60681
66 Ar 6.47746 -0.32905 11.0367
67 Ar 6.60633 4.43884 2.0854
68 Ar 6.71759 4.27879 6.63503
69 Ar 6.65842 4.39821 11.263
70 Ar 6.65046 8.84814 2.35111
71 Ar 6.70829 8.98666 6.43534
72 Ar 6.62664 8.96997 11.1839
73 Ar 10.98 -0.156716 2.00617
74 Ar 11.3126 0.0194052 6.48103
75 Ar 11.1172 0.0437672 11.1302
76 Ar 11.262 4.46366 2.38578
77 Ar 11.0903 4.47742 6.77813
78 Ar 10.9928 4.30517 11.1674
79 Ar 11.2689 8.83393 1.9645
80 Ar 11.0909 9.00913 6.78586
81 Ar 11.1476 8.75106 11.3041
82 Ar 2.1368 2.30601 -0.188627
83 Ar 2.26386 2.41129 4.73612
84 Ar 2.31403 2.36958 8.89749
85 Ar 2.24841 6.79413 0.0308502
86 Ar 2.32002 6.62667 4.47395
87 Ar 2.14685 6.55259 9.0346
88 Ar 2.23753 10.9948 0.100011
89 Ar 2.11985 11.1786 4.57182
90 Ar 2.29126 11.1407 8.96809
91 Ar 6.68912 2.02612 0.0569149
92 Ar 6.59109 2.17908 4.33295
93 Ar 6.64063 2.04816 8.93935
94 Ar 6.65433 6.69965 -0.0840824
95 Ar 6.78826 6.44396 4.41009
96 Ar 6.73152 6.61295 8.84454
97 Ar 6.72482 11.0967 0.0695214
98 Ar 6.61703 11.2116 4.48042
99 Ar 6.694 11.0917 8.75761
100 Ar 11.1868 2.16594 0.107929
101 Ar 11.3521 2.1446 4.24382
102 Ar 11.018 2.14872 8.77396
103 Ar 11.0482 6.71821 0.0848527
104 Ar 11.0852 6.84658 4.49406
105 Ar 11.2134 6.63081 8.82121
106 Ar 11.0747 11.166 -0.190379
107 Ar 11.2124 11.0341 4.33088
108 Ar 11.0904 11.1284 9.04716
ITEM: TIMESTEP
48010
ITEM: NUMBER OF ATOMS
108
ITEM: BOX BOUNDS pp pp pp
0.0000000000000000e+00 1.3349999400000000e+01
0.0000000000000000e+00 1.3349999400000000e+01
0.0000000000000000e+00 1.3349999400000000e+01
ITEM: ATOMS id element xu yu zu
1 Ar 0.119634 0.0501104 -0.141924
2 Ar -0.00557582 -0.117171 4.30125
3 Ar -0.209574 0.130946 8.8967
4 Ar 0.0813349 4.45376 -0.0332145
5 Ar 0.046754 4.64766 4.51436
6 Ar 0.0126767 4.48723 8.97979
7 Ar 0.0790597 8.95938 -0.282206
8 Ar -0.149742 9.04515 4.33177
9 Ar -0.071919 8.97772 9.10617
10 Ar 4.1969 -0.0993782 0.109768
11 Ar 4.37659 0.0407176 4.37826
12 Ar 4.4783 0.0515645 9.0418
13 Ar 4.44962 4.48205 0.0776531
14 Ar 4.48071 4.39152 4.29789
15 Ar 4.55499 4.36136 8.84813
16 Ar 4.47295 8.87958 0.131991
17 Ar 4.41039 8.96687 4.51687
18 Ar 4.57446 8.95145 8.94646
19 Ar 8.85081 -0.0388552 -0.0751368
20 Ar 8.92255 0.0537509 4.51092
21 Ar 8.84172 -0.0394438 8.8121
22 Ar 8.91282 4.37551 0.030285
23 Ar 9.14479 4.32172 4.5414
24 Ar 8.83761 4.33018 9.05885
25 Ar 9.06064 9.02241 0.0658931
26 Ar 8.87628 8.8196 4.39314
27 Ar 8.93175 9.04445 9.03622
28 Ar 0.18431 2.30062 2.35086
29 Ar -0.0594263 2.37252 6.68173
30 Ar -0.0162632 2.35168 11.174
31 Ar 0.0667298 6.58502 2.20884
32 Ar 0.0803505 6.88887 6.62797
33 Ar 0.0507671 6.46428 11.2154
34 Ar -0.00337506 11.0553 1.97373
35 Ar 0.109575 11.2298 6.75642
36 Ar -0.0060057 11.169 11.076
37 Ar 4.31063 2.27521 2.18372
38 Ar 4.47771 2.14833 6.63286
39 Ar 4.62941 2.15227 11.273
40 Ar 4.42103 6.69801 2.13912
41 Ar 4.52396 6.71261 6.63523
42 Ar 4.49876 6.52939 11.0241
43 Ar 4.27674 11.1301 2.3775
44 Ar 4.35403 11.2838 6.66136
45 Ar 4.44447 11.0358 11.153
46 Ar 8.85694 2.06907 2.16865
47 Ar 8.80356 2.28011 6.58249
48 Ar 8.96559 2.03597 11.1051
49 Ar 9.00783 6.80755 2.2839
50 Ar 8.98226 6.76848 6.68494
51 Ar 8.79298 6.74467 10.9506
52 Ar 8.74143 11.0547 2.32305
53 Ar 8.85658 11.141 6.64074
54 Ar 8.83146 11.1841 11.028
55 Ar 2.17856 0.0410974 2.41382
56 Ar 1.93739 0.28292 6.70828
57 Ar 2.14689 0.213 10.9977
58 Ar 2.17214 4.42201 2.25622
59 Ar 2.34242 4.67719 6.71529
60 Ar 2.416 4.47484 11.241
61 Ar 2.1416 8.85754 2.39391
62 Ar 2.20141 8.87651 6.80323
63 Ar 2.18634 8.6662 11.0465
64 Ar 6.49123 0.0425989 2.15364
65 Ar 6.83034 0.0705124 6.6221
66 Ar 6.48437 -0.315798 11.0502
67 Ar 6.60174 4.44948 2.07796
68 Ar 6.71156 4.28299 6.64081
69 Ar 6.6475 4.39711 11.2535
70 Ar 6.65009 8.85105 2.36866
71 Ar 6.71319 8.95345 6.44069
72 Ar 6.61922 8.99127 11.1887
73 Ar 10.9846 -0.151908 2.01168
74 Ar 11.3106 0.0444235 6.49049
75 Ar 11.1133 0.0189591 11.1242
76 Ar 11.2579 4.46968 2.39604
77 Ar 11.0875 4.4906 6.77896
78 Ar 10.9956 4.29029 11.1808
79 Ar 11.2795 8.81566 1.98175
80 Ar 11.0976 9.02133 6.77322
81 Ar 11.1417 8.77387 11.289
82 Ar 2.15054 2.30778 -0.194574
83 Ar 2.2518 2.40718 4.74011
84 Ar 2.33382 2.34846 8.89595
85 Ar 2.25206 6.79349 0.0123565
86 Ar 2.32238 6.63211 4.47641
87 Ar 2.14857 6.5514 9.03714
88 Ar 2.239 11.0146 0.0963213
89 Ar 2.1321 11.18 4.57523
90 Ar 2.29796 11.1201 8.95749
91 Ar 6.68712 2.01614 0.0620928
92 Ar 6.61024 2.19383 4.3113
93 Ar 6.64082 2.05355 8.93519
94 Ar 6.65331 6.69738 -0.0836015
95 Ar 6.77754 6.44661 4.40705
96 Ar 6.71907 6.60704 8.83358
97 Ar 6.74253 11.0806 0.0696682
98 Ar 6.61244 11.1973 4.46866
99 Ar 6.68471 11.1057 8.75732
100 Ar 11.1923 2.14913 0.0986267
101 Ar 11.343 2.15222 4.24498
102 Ar 11.0335 2.14683 8.77855
103 Ar 11.0604 6.73435 0.062413
104 Ar 11.0614 6.84628 4.49999
105 Ar 11.2173 6.644 8.81374
106 Ar 11.08 11.1542 -0.19518
107 Ar 11.2109 11.0241 4.3464
108 Ar 11.0962 11.1204 9.03675
ITEM: TIMESTEP
48020
ITEM: NUMBER OF ATOMS
108
ITEM: BOX BOUNDS pp pp pp
0.0000000000000000e+00 1.3349999400000000e+01
0.0000000000000000e+00 1.3349999400000000e+01
0.0000000000000000e+00 1.3349999400000000e+01
ITEM: ATOMS id element xu yu zu
1 Ar 0.117362 0.0640324 -0.114412
2 Ar -0.0242986 -0.125759 4.30549
3 Ar -0.208075 0.136139 8.9066
4 Ar 0.080096 4.45447 -0.0453932
5 Ar 0.034627 4.6409 4.50841
6 Ar 0.00905135 4.48245 9.00033
7 Ar 0.0843448 8.96386 -0.295238
8 Ar -0.132259 9.05656 4.32892
9 Ar -0.078904 8.9756 9.08642
10 Ar 4.18828 -0.0938568 0.0986383
11 Ar 4.39129 0.0240761 4.36357
12 Ar 4.48058 0.0726998 9.03998
13 Ar 4.44816 4.48824 0.0863671
14 Ar 4.4946 4.38795 4.29989
15 Ar 4.56934 4.35223 8.85256
16 Ar 4.47416 8.86671 0.124184
17 Ar 4.39703 8.93831 4.5185
18 Ar 4.56868 8.9716 8.95585
19 Ar 8.85369 -0.0344656 -0.0768634
20 Ar 8.91822 0.0682555 4.52787
21 Ar 8.85675 -0.037623 8.78653
22 Ar 8.93311 4.36376 0.0143148
23 Ar 9.15121 4.32059 4.54023
24 Ar 8.84179 4.31489 9.05017
25 Ar 9.04769 9.01587 0.06342
26 Ar 8.88746 8.82672 4.4108
27 Ar 8.94471 9.05463 9.01898
28 Ar 0.153766 2.29728 2.35484
29 Ar -0.058123 2.36378 6.69379
30 Ar -0.0180345 2.34685 11.1769
31 Ar 0.0619675 6.57128 2.20905
32 Ar 0.0567782 6.89519 6.64601
33 Ar 0.0383805 6.47351 11.2086
34 Ar -0.0117794 11.0516 1.96676
35 Ar 0.129497 11.2635 6.76067
36 Ar -0.0161699 11.1738 11.0648
37 Ar 4.3141 2.27799 2.1635
38 Ar 4.49299 2.1497 6.6282
39 Ar 4.60528 2.17069 11.2746
40 Ar 4.41253 6.71161 2.15805
41 Ar 4.54178 6.69329 6.62644
42 Ar 4.51498 6.51868 11.0396
43 Ar 4.25716 11.138 2.36495
44 Ar 4.38157 11.2896 6.65113
45 Ar 4.42842 11.0338 11.1618
46 Ar 8.85848 2.05351 2.15552
47 Ar 8.79643 2.25601 6.56822
48 Ar 8.95627 2.04417 11.1327
49 Ar 8.99814 6.81483 2.29092
50 Ar 8.98564 6.75582 6.69584
51 Ar 8.77627 6.73923 10.9451
52 Ar 8.73943 11.0643 2.32894
53 Ar 8.8524 11.1409 6.64601
54 Ar 8.82925 11.1872 11.0358
55 Ar 2.17243 0.0254111 2.4171
56 Ar 1.9152 0.287161 6.7025
57 Ar 2.16064 0.214494 10.9909
58 Ar 2.16357 4.43269 2.26907
59 Ar 2.34097 4.69052 6.73815
60 Ar 2.42211 4.47707 11.2353
61 Ar 2.15477 8.84244 2.39975
62 Ar 2.23212 8.87646 6.79505
63 Ar 2.1363 8.66725 11.045
64 Ar 6.51234 0.0224041 2.17275
65 Ar 6.83235 0.062257 6.63714
66 Ar 6.4949 -0.29871 11.0669
67 Ar 6.60025 4.45972 2.07193
68 Ar 6.70476 4.28975 6.64669
69 Ar 6.63809 4.39513 11.2431
70 Ar 6.64878 8.85374 2.3847
71 Ar 6.71751 8.91878 6.44937
72 Ar 6.61308 9.01102 11.1933
73 Ar 10.9915 -0.147113 2.02002
74 Ar 11.3055 0.0682278 6.50114
75 Ar 11.11 -0.00534357 11.1182
76 Ar 11.2519 4.47608 2.40275
77 Ar 11.0857 4.50347 6.77876
78 Ar 10.9997 4.27799 11.1937
79 Ar 11.2902 8.80043 2.00229
80 Ar 11.1053 9.03377 6.76003
81 Ar 11.1346 8.79697 11.2699
82 Ar 2.16659 2.30798 -0.196141
83 Ar 2.23849 2.40254 4.73988
84 Ar 2.35213 2.3278 8.89466
85 Ar 2.25575 6.7912 -0.00540985
86 Ar 2.32451 6.63943 4.47803
87 Ar 2.15207 6.55178 9.03694
88 Ar 2.2409 11.0348 0.0898642
89 Ar 2.145 11.1801 4.57802
90 Ar 2.30369 11.1006 8.94701
91 Ar 6.68447 2.00861 0.0651397
92 Ar 6.63033 2.20931 4.28997
93 Ar 6.6423 2.0612 8.93161
94 Ar 6.6543 6.69604 -0.0817916
95 Ar 6.76629 6.45025 4.40455
96 Ar 6.70616 6.60234 8.82172
97 Ar 6.758 11.0646 0.0703454
98 Ar 6.60779 11.184 4.45634
99 Ar 6.67421 11.1194 8.75673
100 Ar 11.198 2.13382 0.0895534
101 Ar 11.3312 2.15955 4.24836
102 Ar 11.0486 2.14661 8.78405
103 Ar 11.0735 6.74529 0.0377074
104 Ar 11.0403 6.84419 4.50587
105 Ar 11.22 6.65822 8.80893
106 Ar 11.0864 11.1428 -0.198522
107 Ar 11.2058 11.0167 4.36213
108 Ar 11.1024 11.1136 9.02422
ITEM: TIMESTEP
48030
ITEM: NUMBER OF ATOMS
108
ITEM: BOX BOUNDS pp pp pp
0.0000000000000000e+00 1.3349999400000000e+01
0.0000000000000000e+00 1.3349999400000000e+01
0.0000000000000000e+00 1.3349999400000000e+01
ITEM: ATOMS id element xu yu zu
1 Ar 0.114499 0.0767883 -0.0848176
2 Ar -0.043929 -0.133444 4.3098
3 Ar -0.203244 0.140093 8.91741
4 Ar 0.0767608 4.45515 -0.0551993
5 Ar 0.0217948 4.63297 4.50467
6 Ar 0.0049587 4.47588 9.01911
7 Ar 0.0888532 8.96669 -0.303957
8 Ar -0.111586 9.06484 4.32851
9 Ar -0.0852687 8.97188 9.06398
10 Ar 4.18158 -0.087509 0.0860252
11 Ar 4.40622 0.00865077 4.35166
12 Ar 4.48039 0.0919388 9.03441
13 Ar 4.44605 4.49392 0.0941137
14 Ar 4.50825 4.38572 4.30406
15 Ar 4.58363 4.34382 8.85749
16 Ar 4.475 8.85538 0.11486
17 Ar 4.38372 8.90937 4.51987
18 Ar 4.56176 8.98935 8.96327
19 Ar 8.8562 -0.0316323 -0.0782358
20 Ar 8.91512 0.0812019 4.54203
21 Ar 8.87378 -0.0354438 8.76215
22 Ar 8.95312 4.35306 -0.000547682
23 Ar 9.15459 4.32105 4.53625
24 Ar 8.84581 4.30044 9.0394
25 Ar 9.03052 9.00771 0.0599201
26 Ar 8.89935 8.83678 4.42944
27 Ar 8.95639 9.06196 8.99943
28 Ar 0.123165 2.29261 2.35609
29 Ar -0.0575654 2.35746 6.70581
30 Ar -0.0209004 2.34118 11.1771
31 Ar 0.0567047 6.56023 2.20881
32 Ar 0.0320095 6.90004 6.66428
33 Ar 0.0233295 6.48434 11.2011
34 Ar -0.0207116 11.0495 1.96159
35 Ar 0.146948 11.2944 6.76576
36 Ar -0.024148 11.1802 11.0541
37 Ar 4.31735 2.27927 2.14309
38 Ar 4.5088 2.15088 6.62426
39 Ar 4.5798 2.18937 11.2755
40 Ar 4.40466 6.72457 2.17927
41 Ar 4.56016 6.67415 6.61867
42 Ar 4.5317 6.51154 11.0554
43 Ar 4.23991 11.1444 2.351
44 Ar 4.40924 11.2956 6.6418
45 Ar 4.40942 11.032 11.1717
46 Ar 8.86113 2.04053 2.14387
47 Ar 8.79264 2.2312 6.556
48 Ar 8.9443 2.05319 11.1603
49 Ar 8.98666 6.81837 2.2956
50 Ar 8.98694 6.74212 6.70797
51 Ar 8.76158 6.73295 10.9425
52 Ar 8.74013 11.0752 2.33461
53 Ar 8.8506 11.1403 6.65014
54 Ar 8.82757 11.19 11.0451
55 Ar 2.16585 0.0104876 2.41733
56 Ar 1.89751 0.287222 6.69773
57 Ar 2.17493 0.212454 10.9844
58 Ar 2.15668 4.4442 2.28097
59 Ar 2.33818 4.70111 6.7611
60 Ar 2.42664 4.47843 11.2272
61 Ar 2.16805 8.82808 2.40361
62 Ar 2.26346 8.87702 6.78666
63 Ar 2.09055 8.672 11.0433
64 Ar 6.53444 -0.00024211 2.19285
65 Ar 6.82975 0.0530449 6.65145
66 Ar 6.50846 -0.278134 11.0863
67 Ar 6.6021 4.46951 2.06721
68 Ar 6.69768 4.29877 6.65241
69 Ar 6.63049 4.39216 11.232
70 Ar 6.6465 8.85624 2.39906
71 Ar 6.72117 8.88332 6.46122
72 Ar 6.60842 9.02885 11.1974
73 Ar 11.0007 -0.142605 2.03112
74 Ar 11.2972 0.090432 6.51287
75 Ar 11.1072 -0.0286509 11.1123
76 Ar 11.2441 4.48283 2.40555
77 Ar 11.0852 4.5156 6.77767
78 Ar 11.0051 4.26848 11.2059
79 Ar 11.3005 8.7882 2.02554
80 Ar 11.1138 9.04632 6.74637
81 Ar 11.1264 8.82004 11.2471
82 Ar 2.18439 2.30679 -0.193231
83 Ar 2.22435 2.39761 4.73549
84 Ar 2.36866 2.30811 8.89349
85 Ar 2.25936 6.78722 -0.022126
86 Ar 2.32597 6.64808 4.47924
87 Ar 2.15744 6.55386 9.03423
88 Ar 2.24289 11.055 0.0807188
89 Ar 2.15841 11.1789 4.58023
90 Ar 2.3085 11.0825 8.93677
91 Ar 6.68095 2.00351 0.0661354
92 Ar 6.65099 2.22533 4.26921
93 Ar 6.64528 2.07088 8.92883
94 Ar 6.65739 6.69561 -0.078602
95 Ar 6.75487 6.45481 4.40262
96 Ar 6.69302 6.599 8.8093
97 Ar 6.77091 11.0491 0.0716687
98 Ar 6.60316 11.1715 4.44396
99 Ar 6.66279 11.1328 8.75612
100 Ar 11.2036 2.12016 0.0808208
101 Ar 11.3168 2.16648 4.25413
102 Ar 11.0628 2.14829 8.79062
103 Ar 11.0872 6.75119 0.0111562
104 Ar 11.0223 6.8404 4.51166
105 Ar 11.2215 6.67322 8.80706
106 Ar 11.0936 11.1318 -0.200027
107 Ar 11.1971 11.0119 4.37793
108 Ar 11.109 11.1083 9.00956
ITEM: TIMESTEP
48040
ITEM: NUMBER OF ATOMS
108
ITEM: BOX BOUNDS pp pp pp
0.0000000000000000e+00 1.3349999400000000e+01
0.0000000000000000e+00 1.3349999400000000e+01
0.0000000000000000e+00 1.3349999400000000e+01
ITEM: ATOMS id element xu yu zu
1 Ar 0.111275 0.0882078 -0.0537768
2 Ar -0.064191 -0.140205 4.31402
3 Ar -0.195068 0.142741 8.92906
4 Ar 0.0715742 4.45573 -0.0625444
5 Ar 0.00850832 4.62412 4.50347
6 Ar 0.000508409 4.46764 9.03589
7 Ar 0.0921038 8.968 -0.307906
8 Ar -0.0880157 9.06997 4.33071
9 Ar -0.0908684 8.96684 9.03894
10 Ar 4.17722 -0.0803336 0.0722424
11 Ar 4.42122 -0.00497661 4.34261
12 Ar 4.47808 0.10881 9.0254
13 Ar 4.4433 4.49927 0.100891
14 Ar 4.5212 4.38458 4.31028
15 Ar 4.59744 4.33626 8.86288
16 Ar 4.47539 8.84574 0.104179
17 Ar 4.37105 8.88075 4.521
18 Ar 4.55386 9.00427 8.96877
19 Ar 8.85849 -0.0306552 -0.0790659
20 Ar 8.91324 0.0920832 4.55308
21 Ar 8.89268 -0.0328254 8.73964
22 Ar 8.97241 4.34366 -0.0138909
23 Ar 9.15464 4.32305 4.5297
24 Ar 8.84976 4.28698 9.02677
25 Ar 9.00989 8.99789 0.0556498
26 Ar 8.91159 8.84962 4.44878
27 Ar 8.96637 9.06638 8.97797
28 Ar 0.0931226 2.28675 2.35452
29 Ar -0.0578326 2.35404 6.71768
30 Ar -0.0245076 2.33444 11.1747
31 Ar 0.0510439 6.55209 2.20803
32 Ar 0.00676919 6.90346 6.68226
33 Ar 0.00577348 6.49654 11.1929
34 Ar -0.0299251 11.0489 1.95831
35 Ar 0.161553 11.3218 6.77159
36 Ar -0.0296891 11.1883 11.044
37 Ar 4.32036 2.27894 2.123
38 Ar 4.52477 2.15175 6.62064
39 Ar 4.55362 2.20805 11.2756
40 Ar 4.39761 6.73655 2.20226
41 Ar 4.57863 6.65525 6.61206
42 Ar 4.54853 6.50831 11.0714
43 Ar 4.22532 11.1489 2.33575
44 Ar 4.43667 11.3014 6.63346
45 Ar 4.38797 11.0308 11.1825
46 Ar 8.86498 2.03033 2.13371
47 Ar 8.79212 2.2067 6.54612
48 Ar 8.93002 2.06273 11.1871
49 Ar 8.97366 6.81827 2.29778
50 Ar 8.98614 6.72755 6.72119
51 Ar 8.74901 6.72603 10.9424
52 Ar 8.74377 11.0874 2.33999
53 Ar 8.85096 11.1392 6.65297
54 Ar 8.82645 11.1924 11.0555
55 Ar 2.15872 -0.00322332 2.41475
56 Ar 1.88497 0.283307 6.6939
57 Ar 2.18927 0.206747 10.9785
58 Ar 2.15151 4.45606 2.29179
59 Ar 2.33398 4.70867 6.78358
60 Ar 2.42938 4.47894 11.217
61 Ar 2.18103 8.81484 2.40509
62 Ar 2.29484 8.87792 6.77816
63 Ar 2.05 8.68034 11.0412
64 Ar 6.55718 -0.0249022 2.21333
65 Ar 6.82238 0.0429905 6.66462
66 Ar 6.52434 -0.254483 11.1079
67 Ar 6.60742 4.4788 2.06368
68 Ar 6.69085 4.30965 6.65774
69 Ar 6.62499 4.38812 11.2206
70 Ar 6.64332 8.85857 2.41159
71 Ar 6.7241 8.84775 6.47599
72 Ar 6.60535 9.04446 11.2006
73 Ar 11.0118 -0.138582 2.0448
74 Ar 11.2859 0.110685 6.52556
75 Ar 11.1045 -0.0504843 11.1067
76 Ar 11.2343 4.4899 2.40416
77 Ar 11.0861 4.52664 6.77584
78 Ar 11.0116 4.26188 11.2168
79 Ar 11.3102 8.77884 2.05086
80 Ar 11.1231 9.05879 6.73231
81 Ar 11.117 8.84283 11.2209
82 Ar 2.20326 2.30443 -0.1859
83 Ar 2.2098 2.39261 4.7271
84 Ar 2.38315 2.2899 8.8923
85 Ar 2.26281 6.78158 -0.0375459
86 Ar 2.3263 6.65745 4.48049
87 Ar 2.16471 6.55781 9.02936
88 Ar 2.24456 11.0747 0.0690218
89 Ar 2.17219 11.1767 4.58191
90 Ar 2.31241 11.0663 8.92686
91 Ar 6.67638 2.00079 0.0652717
92 Ar 6.67186 2.24169 4.24926
93 Ar 6.64992 2.08227 8.92703
94 Ar 6.66263 6.69607 -0.0739982
95 Ar 6.74368 6.46022 4.40122
96 Ar 6.6799 6.59717 8.7967
97 Ar 6.78096 11.0344 0.0737568
98 Ar 6.59862 11.1594 4.432
99 Ar 6.65075 11.1457 8.75582
100 Ar 11.209 2.10822 0.0725096
101 Ar 11.2998 2.17296 4.26239
102 Ar 11.0757 2.15202 8.7984
103 Ar 11.1012 6.75248 -0.0167489
104 Ar 11.0079 6.83498 4.51735
105 Ar 11.2214 6.68872 8.80831
106 Ar 11.1014 11.1214 -0.199374
107 Ar 11.1852 11.0099 4.39359
108 Ar 11.1158 11.1045 8.9928
ITEM: TIMESTEP
48050
ITEM: NUMBER OF ATOMS
108
ITEM: BOX BOUNDS pp pp pp
0.0000000000000000e+00 1.3349999400000000e+01
0.0000000000000000e+00 1.3349999400000000e+01
0.0000000000000000e+00 1.3349999400000000e+01
ITEM: ATOMS id element xu yu zu
1 Ar 0.107908 0.0981633 -0.0219403
2 Ar -0.0847702 -0.146016 4.31804
3 Ar -0.183625 0.144085 8.94144
4 Ar 0.0648344 4.45609 -0.0674246
5 Ar -0.00500769 4.61457 4.50498
6 Ar -0.00417557 4.45796 9.05051
7 Ar 0.0936337 8.96793 -0.306737
8 Ar -0.0619478 9.07208 4.33565
9 Ar -0.0955276 8.96083 9.01146
10 Ar 4.17558 -0.072371 0.057606
11 Ar 4.43609 -0.0163124 4.33642
12 Ar 4.47415 0.122918 9.01335
13 Ar 4.43994 4.50446 0.106714
14 Ar 4.53304 4.38426 4.31831
15 Ar 4.61035 4.32964 8.86866
16 Ar 4.47523 8.83785 0.0923406
17 Ar 4.3596 8.85315 4.52195
18 Ar 4.54519 9.01599 8.97244
19 Ar 8.86074 -0.03176 -0.0791329
20 Ar 8.91253 0.100414 4.56073
21 Ar 8.91322 -0.0297343 8.71958
22 Ar 8.99054 4.33579 -0.0253291
23 Ar 9.15118 4.32653 4.52087
24 Ar 8.85373 4.27466 9.01256
25 Ar 8.98665 8.9864 0.0508468
26 Ar 8.9238 8.86493 4.46847
27 Ar 8.97428 9.06791 8.95499
28 Ar 0.0641417 2.27992 2.35017
29 Ar -0.0588974 2.35376 6.72925
30 Ar -0.0284577 2.32643 11.1701
31 Ar 0.0450792 6.54701 2.20669
32 Ar -0.0182257 6.90541 6.69946
33 Ar -0.0140052 6.50985 11.1841
34 Ar -0.0391442 11.0495 1.95696
35 Ar 0.172946 11.345 6.77803
36 Ar -0.0326171 11.1978 11.0346
37 Ar 4.32315 2.27692 2.10379
38 Ar 4.54054 2.15227 6.61696
39 Ar 4.52737 2.22647 11.2748
40 Ar 4.39158 6.74719 2.22641
41 Ar 4.59666 6.63665 6.60667
42 Ar 4.56506 6.50916 11.087
43 Ar 4.21368 11.1513 2.31929
44 Ar 4.46349 11.3071 6.62614
45 Ar 4.36464 11.0304 11.1942
46 Ar 8.87007 2.02307 2.12501
47 Ar 8.79469 2.18348 6.53878
48 Ar 8.91383 2.07256 11.2126
49 Ar 8.95945 6.81474 2.29744
50 Ar 8.98328 6.71227 6.73533
51 Ar 8.73859 6.71863 10.9447
52 Ar 8.75054 11.1002 2.34497
53 Ar 8.85316 11.1374 6.65437
54 Ar 8.82592 11.1943 11.0665
55 Ar 2.15099 -0.015357 2.40963
56 Ar 1.87815 0.275812 6.69087
57 Ar 2.20319 0.197353 10.9736
58 Ar 2.14805 4.46785 2.30146
59 Ar 2.32832 4.71296 6.80503
60 Ar 2.43014 4.47869 11.2047
61 Ar 2.19333 8.80308 2.40379
62 Ar 2.32566 8.87889 6.76968
63 Ar 2.01535 8.69213 11.0381
64 Ar 6.58026 -0.0510331 2.23357
65 Ar 6.81033 0.032266 6.6763
66 Ar 6.54181 -0.228219 11.1311
67 Ar 6.61619 4.48753 2.06122
68 Ar 6.6848 4.32194 6.66244
69 Ar 6.6218 4.383 11.209
70 Ar 6.63933 8.86077 2.42217
71 Ar 6.72629 8.81279 6.4934
72 Ar 6.60391 9.05765 11.2026
73 Ar 11.0246 -0.135166 2.06085
74 Ar 11.272 0.12868 6.53912
75 Ar 11.1019 -0.0703981 11.1013
76 Ar 11.2225 4.49722 2.39847
77 Ar 11.0883 4.5363 6.77338
78 Ar 11.0192 4.25825 11.2261
79 Ar 11.3186 8.7721 2.07759
80 Ar 11.1331 9.07095 6.71793
81 Ar 11.1065 8.86509 11.1919
82 Ar 2.22245 2.30114 -0.174339
83 Ar 2.1952 2.38763 4.71494
84 Ar 2.39532 2.27359 8.89092
85 Ar 2.26597 6.77431 -0.0515055
86 Ar 2.32507 6.66692 4.48222
87 Ar 2.17386 6.56378 9.02272
88 Ar 2.24547 11.0936 0.054971
89 Ar 2.1862 11.1734 4.58313
90 Ar 2.31544 11.0522 8.91733
91 Ar 6.67066 2.00036 0.0628367
92 Ar 6.69259 2.2582 4.23034
93 Ar 6.65633 2.09499 8.9263
94 Ar 6.66996 6.69733 -0.0679682
95 Ar 6.73309 6.46643 4.40033
96 Ar 6.66707 6.59694 8.78444
97 Ar 6.78789 11.0209 0.0767224
98 Ar 6.59426 11.1476 4.42092
99 Ar 6.63843 11.158 8.75623
100 Ar 11.2142 2.09803 0.0646672
101 Ar 11.2805 2.17898 4.27315
102 Ar 11.0871 2.15788 8.80755
103 Ar 11.115 6.74972 -0.0454631
104 Ar 10.9974 6.82804 4.52287
105 Ar 11.2195 6.70439 8.8128
106 Ar 11.1095 11.1115 -0.196323
107 Ar 11.1703 11.0106 4.40895
108 Ar 11.1229 11.1027 8.97403
ITEM: TIMESTEP
48060
ITEM: NUMBER OF ATOMS
108
ITEM: BOX BOUNDS pp pp pp
0.0000000000000000e+00 1.3349999400000000e+01
0.0000000000000000e+00 1.3349999400000000e+01
0.0000000000000000e+00 1.3349999400000000e+01
ITEM: ATOMS id element xu yu zu
1 Ar 0.104587 0.106559 0.0100327
2 Ar -0.10532 -0.150846 4.32182
3 Ar -0.169082 0.144194 8.95433
4 Ar 0.0568757 4.45613 -0.069912
5 Ar -0.0185612 4.60453 4.50921
6 Ar -0.00895618 4.44715 9.06283
7 Ar 0.0930571 8.96661 -0.300255
8 Ar -0.0338616 9.07141 4.34338
9 Ar -0.0990441 8.95423 8.98186
10 Ar 4.17697 -0.0637113 0.0424311
11 Ar 4.45057 -0.0249653 4.33297
12 Ar 4.46913 0.133955 8.9987
13 Ar 4.43607 4.50968 0.111613
14 Ar 4.54338 4.38446 4.32793
15 Ar 4.62197 4.32406 8.87476
16 Ar 4.47447 8.83167 0.0795735
17 Ar 4.34996 8.82725 4.52277
18 Ar 4.53598 9.02428 8.97442
19 Ar 8.86314 -0.035084 -0.0781963
20 Ar 8.91284 0.105763 4.56478
21 Ar 8.93506 -0.0261838 8.70247
22 Ar 9.00711 4.32965 -0.0345218
23 Ar 9.14409 4.33143 4.51012
24 Ar 8.8578 4.26364 8.99703
25 Ar 8.96166 8.97325 0.0457221
26 Ar 8.93561 8.88225 4.48817
27 Ar 8.9798 9.06664 8.93091
28 Ar 0.0366004 2.27236 2.34319
29 Ar -0.0606283 2.35664 6.7404
30 Ar -0.0323369 2.31698 11.1637
31 Ar 0.038898 6.54505 2.2048
32 Ar -0.042297 6.90584 6.71544
33 Ar -0.0355981 6.52404 11.1744
34 Ar -0.0480762 11.0512 1.95765
35 Ar 0.180793 11.3635 6.78491
36 Ar -0.0328426 11.2085 11.026
37 Ar 4.32583 2.2732 2.08605
38 Ar 4.55577 2.15248 6.6129
39 Ar 4.50167 2.24437 11.2731
40 Ar 4.38677 6.75615 2.25109
41 Ar 4.61361 6.61839 6.60254
42 Ar 4.58098 6.51414 11.1021
43 Ar 4.20519 11.1513 2.30172
44 Ar 4.48926 11.3122 6.61988
45 Ar 4.34012 11.0313 11.2063
46 Ar 8.87644 2.01881 2.11768
47 Ar 8.80003 2.16247 6.53416
48 Ar 8.89616 2.08246 11.2362
49 Ar 8.94434 6.8081 2.29467
50 Ar 8.97848 6.69644 6.75015
51 Ar 8.73035 6.7109 10.9489
52 Ar 8.76055 11.1135 2.34944
53 Ar 8.85685 11.1352 6.6543
54 Ar 8.82597 11.1955 11.0776
55 Ar 2.14271 -0.0256433 2.40235
56 Ar 1.87743 0.265292 6.68848
57 Ar 2.21632 0.184368 10.97
58 Ar 2.14629 4.47917 2.30991
59 Ar 2.3212 4.7138 6.82495
60 Ar 2.42875 4.47779 11.1905
61 Ar 2.20459 8.79313 2.39936
62 Ar 2.3554 8.87972 6.76139
63 Ar 1.98709 8.70715 11.034
64 Ar 6.60334 -0.0780087 2.25298
65 Ar 6.79392 0.0211108 6.68622
66 Ar 6.56014 -0.199838 11.1554
67 Ar 6.62828 4.49565 2.05971
68 Ar 6.68004 4.33516 6.66628
69 Ar 6.62107 4.37687 11.1977
70 Ar 6.63466 8.86287 2.4307
71 Ar 6.72772 8.77916 6.51309
72 Ar 6.6041 9.06828 11.203
73 Ar 11.0388 -0.132403 2.079
74 Ar 11.2558 0.14416 6.55346
75 Ar 11.0992 -0.0880006 11.0964
76 Ar 11.2088 4.50468 2.38848
77 Ar 11.0919 4.54435 6.77042
78 Ar 11.0278 4.25755 11.2334
79 Ar 11.3256 8.7677 2.10508
80 Ar 11.1438 9.08254 6.70335
81 Ar 11.095 8.88662 11.1607
82 Ar 2.24114 2.29718 -0.158853
83 Ar 2.18088 2.38273 4.69933
84 Ar 2.40493 2.25958 8.88919
85 Ar 2.26873 6.76553 -0.0639227
86 Ar 2.32184 6.67587 4.48485
87 Ar 2.18479 6.57189 9.01475
88 Ar 2.24519 11.1114 0.0388308
89 Ar 2.20032 11.1694 4.58392
90 Ar 2.31758 11.0406 8.90822
91 Ar 6.66374 2.00212 0.0591971
92 Ar 6.71285 2.27465 4.21263
93 Ar 6.66452 2.1086 8.92672
94 Ar 6.67928 6.6993 -0.0605297
95 Ar 6.72348 6.47343 4.3999
96 Ar 6.65478 6.59836 8.77306
97 Ar 6.7915 11.009 0.0806591
98 Ar 6.59016 11.1359 4.41115
99 Ar 6.62617 11.1698 8.75775
100 Ar 11.219 2.0896 0.0573047
101 Ar 11.2591 2.18459 4.28632
102 Ar 11.0967 2.16583 8.81818
103 Ar 11.1283 6.74361 -0.0744097
104 Ar 10.9907 6.81972 4.5282
105 Ar 11.2157 6.71989 8.82055
106 Ar 11.1176 11.1022 -0.190729
107 Ar 11.1531 11.014 4.42379
108 Ar 11.13 11.1029 8.95337
ITEM: TIMESTEP
48070
ITEM: NUMBER OF ATOMS
108
ITEM: BOX BOUNDS pp pp pp
0.0000000000000000e+00 1.3349999400000000e+01
0.0000000000000000e+00 1.3349999400000000e+01
0.0000000000000000e+00 1.3349999400000000e+01
ITEM: ATOMS id element xu yu zu
1 Ar 0.101459 0.113324 0.0414764
2 Ar -0.125466 -0.154657 4.32543
3 Ar -0.151686 0.143201 8.96747
4 Ar 0.0480525 4.45576 -0.0701433
5 Ar -0.0319927 4.59422 4.51598
6 Ar -0.0136867 4.43562 9.07275
7 Ar 0.0901163 8.96416 -0.288456
8 Ar -0.00428874 9.06826 4.35392
9 Ar -0.101198 8.94744 8.9505
10 Ar 4.18162 -0.0544974 0.0270293
11 Ar 4.46443 -0.030655 4.33205
12 Ar 4.46354 0.141714 8.98192
13 Ar 4.43186 4.5151 0.115628
14 Ar 4.55192 4.38492 4.33885
15 Ar 4.63192 4.31964 8.88109
16 Ar 4.47302 8.82713 0.0661223
17 Ar 4.34269 8.80368 4.52352
18 Ar 4.52649 9.029 8.9749
19 Ar 8.86587 -0.0406677 -0.0760108
20 Ar 8.91398 0.10779 4.56514
21 Ar 8.95777 -0.0222303 8.68869
22 Ar 9.0218 4.32544 -0.0411972
23 Ar 9.13334 4.3377 4.49782
24 Ar 8.86207 4.2541 8.9805
25 Ar 8.93582 8.95849 0.0404571
26 Ar 8.94666 8.90102 4.50749
27 Ar 8.9827 9.06271 8.90612
28 Ar 0.0107571 2.26436 2.33387
29 Ar -0.0628059 2.36248 6.75098
30 Ar -0.0357446 2.30596 11.156
31 Ar 0.032583 6.54615 2.20241
32 Ar -0.0648323 6.90463 6.72977
33 Ar -0.0584737 6.53891 11.164
34 Ar -0.056423 11.0537 1.96046
35 Ar 0.184822 11.377 6.79199
36 Ar -0.0303744 11.22 11.0184
37 Ar 4.32854 2.26781 2.07035
38 Ar 4.57013 2.15243 6.6082
39 Ar 4.47707 2.26146 11.2704
40 Ar 4.38339 6.76309 2.27561
41 Ar 4.6288 6.60048 6.59968
42 Ar 4.59599 6.52315 11.1163
43 Ar 4.19997 11.1489 2.28319
44 Ar 4.51355 11.3166 6.61466
45 Ar 4.3151 11.0335 11.2186
46 Ar 8.88408 2.01753 2.11158
47 Ar 8.80777 2.14443 6.53234
48 Ar 8.8775 2.09229 11.2573
49 Ar 8.92873 6.79873 2.28964
50 Ar 8.97196 6.68021 6.76535
51 Ar 8.72425 6.70295 10.9547
52 Ar 8.77387 11.1266 2.35323
53 Ar 8.86162 11.1325 6.6528
54 Ar 8.82655 11.1959 11.0881
55 Ar 2.13399 -0.0339116 2.3933
56 Ar 1.88304 0.252401 6.6865
57 Ar 2.22836 0.168004 10.9679
58 Ar 2.14614 4.48971 2.31712
59 Ar 2.31267 4.71107 6.84289
60 Ar 2.42508 4.4764 11.1747
61 Ar 2.21448 8.78528 2.39155
62 Ar 2.38356 8.88026 6.75344
63 Ar 1.96547 8.72511 11.0286
64 Ar 6.62615 -0.105145 2.27105
65 Ar 6.77372 0.00983353 6.69416
66 Ar 6.57865 -0.169872 11.1799
67 Ar 6.64347 4.50309 2.05902
68 Ar 6.67699 4.3488 6.6691
69 Ar 6.62286 4.36986 11.1869
70 Ar 6.6295 8.86489 2.43709
71 Ar 6.72841 8.74758 6.5347
72 Ar 6.60582 9.07628 11.2017
73 Ar 11.0539 -0.130267 2.09893
74 Ar 11.2378 0.156926 6.56847
75 Ar 11.0961 -0.102971 11.0918
76 Ar 11.1935 4.51214 2.37431
77 Ar 11.0967 4.55065 6.76707
78 Ar 11.0371 4.25967 11.2382
79 Ar 11.3305 8.76536 2.13276
80 Ar 11.1551 9.09328 6.68868
81 Ar 11.0828 8.90731 11.1279
82 Ar 2.25853 2.2928 -0.139843
83 Ar 2.1671 2.37786 4.68062
84 Ar 2.41176 2.24814 8.887
85 Ar 2.27097 6.75538 -0.0747906
86 Ar 2.31622 6.68375 4.48876
87 Ar 2.19738 6.58224 9.00589
88 Ar 2.24327 11.1277 0.0209383
89 Ar 2.21441 11.1647 4.58432
90 Ar 2.31883 11.0316 8.89953
91 Ar 6.65565 2.00598 0.0547784
92 Ar 6.73233 2.2908 4.19632
93 Ar 6.67445 2.1226 8.92826
94 Ar 6.6904 6.70186 -0.0517367
95 Ar 6.71519 6.48119 4.39985
96 Ar 6.64331 6.60139 8.7632
97 Ar 6.79164 10.9989 0.0856274
98 Ar 6.58643 11.1239 4.40308
99 Ar 6.61435 11.1808 8.76078
100 Ar 11.223 2.08288 0.050395
101 Ar 11.236 2.18989 4.30173
102 Ar 11.1045 2.17576 8.83036
103 Ar 11.1407 6.73489 -0.102998
104 Ar 10.9879 6.81018 4.53326
105 Ar 11.2097 6.73482 8.83148
106 Ar 11.1255 11.0933 -0.182554
107 Ar 11.1342 11.0199 4.43791
108 Ar 11.1371 11.1053 8.93101
ITEM: TIMESTEP
48080
ITEM: NUMBER OF ATOMS
108
ITEM: BOX BOUNDS pp pp pp
0.0000000000000000e+00 1.3349999400000000e+01
0.0000000000000000e+00 1.3349999400000000e+01
0.0000000000000000e+00 1.3349999400000000e+01
ITEM: ATOMS id element xu yu zu
1 Ar 0.0986228 0.118398 0.0717222
2 Ar -0.144808 -0.157397 4.32901
3 Ar -0.131753 0.14129 8.98048
4 Ar 0.0387243 4.45488 -0.0683083
5 Ar -0.0451702 4.58381 4.52499
6 Ar -0.0182159 4.42381 9.08024
7 Ar 0.0847142 8.96066 -0.271544
8 Ar 0.0262168 9.06296 4.36721
9 Ar -0.101769 8.94089 8.91787
10 Ar 4.18969 -0.0449225 0.0117057
11 Ar 4.47742 -0.0332153 4.33337
12 Ar 4.45788 0.146093 8.96351
13 Ar 4.42748 4.52085 0.118805
14 Ar 4.5584 4.38539 4.35076
15 Ar 4.6399 4.31645 8.88753
16 Ar 4.47084 8.82408 0.052238
17 Ar 4.33826 8.78303 4.52427
18 Ar 4.517 9.03011 8.97409
19 Ar 8.8691 -0.0484531 -0.0723447
20 Ar 8.91569 0.106285 4.56183
21 Ar 8.98079 -0.0179667 8.67855
22 Ar 9.03433 4.32329 -0.0451778
23 Ar 9.11903 4.34528 4.48434
24 Ar 8.86661 4.24622 8.96325
25 Ar 8.90997 8.94223 0.0352041
26 Ar 8.95657 8.92055 4.52606
27 Ar 8.9828 9.05634 8.88097
28 Ar -0.0132365 2.25628 2.32262
29 Ar -0.0651508 2.37086 6.76086
30 Ar -0.0383154 2.29331 11.1475
31 Ar 0.0262128 6.5502 2.1996
32 Ar -0.0853073 6.90159 6.74213
33 Ar -0.0819888 6.55429 11.1525
34 Ar -0.063892 11.0567 1.96551
35 Ar 0.184857 11.3852 6.79904
36 Ar -0.0253285 11.2318 11.0119
37 Ar 4.33146 2.26086 2.05726
38 Ar 4.58335 2.15227 6.60267
39 Ar 4.45404 2.27748 11.2665