ITEM: TIMESTEP
36000
ITEM: NUMBER OF ATOMS
108
ITEM: BOX BOUNDS pp pp pp
0.0000000000000000e+00 1.3349999400000000e+01
0.0000000000000000e+00 1.3349999400000000e+01
0.0000000000000000e+00 1.3349999400000000e+01
ITEM: ATOMS id element xu yu zu
1 Ar -0.111905 0.0849839 0.0603402
2 Ar -0.22629 0.174898 4.53618
3 Ar -0.146139 0.0422641 8.79075
4 Ar 0.0597042 4.60198 -0.140499
5 Ar 0.0497365 4.5554 4.49505
6 Ar 0.036044 4.57608 9.0724
7 Ar 0.167369 9.08112 -0.0494421
8 Ar -0.163545 8.84531 4.19431
9 Ar 0.22062 9.01648 8.85904
10 Ar 4.53098 0.266177 -0.000730469
11 Ar 4.57985 -0.354192 4.6392
12 Ar 4.33507 0.0406687 8.6736
13 Ar 4.43289 4.0231 0.0692245
14 Ar 4.32597 4.53651 4.35673
15 Ar 4.43741 4.39945 8.8299
16 Ar 4.30033 8.918 0.0574726
17 Ar 4.3471 8.90663 4.22801
18 Ar 4.47985 8.94136 9.04797
19 Ar 8.92191 -0.113141 0.00878517
20 Ar 8.8489 -0.237633 4.59049
21 Ar 9.04734 0.09585 8.88369
22 Ar 8.82061 4.54153 0.154102
23 Ar 8.83409 4.5203 4.39403
24 Ar 8.80927 4.56197 9.19344
25 Ar 8.76058 8.85626 0.0350403
26 Ar 8.90777 8.87195 4.19358
27 Ar 8.71067 8.80847 9.10507
28 Ar 0.230078 2.44547 2.15385
29 Ar 0.10964 2.51526 6.72651
30 Ar -0.160083 2.03722 11.1546
31 Ar 0.0976461 6.70349 2.09983
32 Ar -0.128291 6.63055 6.68752
33 Ar 0.252081 6.94811 10.9969
34 Ar -0.0299851 11.2668 2.37313
35 Ar -0.0222788 11.008 6.58933
36 Ar -0.00238785 11.3005 10.9794
37 Ar 4.35463 2.18083 2.50956
38 Ar 4.63232 2.18381 6.45324
39 Ar 4.34674 2.06379 11.1568
40 Ar 4.29684 6.56988 2.33207
41 Ar 4.72758 6.70726 6.65986
42 Ar 4.587 6.58449 10.993
43 Ar 4.41719 11.2501 2.22423
44 Ar 4.57023 11.0443 6.71812
45 Ar 4.31177 11.3158 11.027
46 Ar 9.07275 2.0298 2.11875
47 Ar 8.77018 2.24847 6.65613
48 Ar 8.9924 2.12235 11.1504
49 Ar 8.89621 6.65272 2.22673
50 Ar 9.02423 6.75092 6.69309
51 Ar 8.87055 6.63666 11.2942
52 Ar 8.91394 11.1193 2.10175
53 Ar 8.86218 10.9019 6.79812
54 Ar 8.99951 11.1245 11.2368
55 Ar 2.3017 -0.038352 2.25599
56 Ar 2.12327 0.0597219 6.65627
57 Ar 2.24239 -0.212017 11.0387
58 Ar 2.27124 4.51346 1.95945
59 Ar 2.29401 4.52138 6.64602
60 Ar 2.23769 4.39501 10.9336
61 Ar 2.07734 8.93752 2.1201
62 Ar 2.05959 8.74114 6.48019
63 Ar 2.37768 8.9986 10.9686
64 Ar 6.56781 -0.128933 2.25424
65 Ar 6.81754 -0.190678 6.7675
66 Ar 6.79759 0.120582 11.1525
67 Ar 6.7091 4.3014 2.35811
68 Ar 6.7197 4.49532 6.55592
69 Ar 6.50978 4.12608 11.2602
70 Ar 6.46459 8.95886 2.14867
71 Ar 6.66395 8.85521 6.78178
72 Ar 6.68013 8.79662 11.3702
73 Ar 11.0802 -0.0979011 2.36108
74 Ar 10.9314 0.165877 6.62139
75 Ar 11.1525 -0.107924 11.148
76 Ar 11.3185 4.57815 2.22922
77 Ar 11.159 4.44979 6.67307
78 Ar 11.1418 4.60837 11.1245
79 Ar 11.1198 8.918 2.07784
80 Ar 11.0949 8.666 6.61602
81 Ar 11.2374 9.02338 11.2615
82 Ar 2.12038 2.20921 -0.0824062
83 Ar 2.16629 2.27302 4.56547
84 Ar 2.15792 2.17691 8.81816
85 Ar 2.30344 6.6577 -0.0656919
86 Ar 2.21214 6.6902 4.3257
87 Ar 2.38413 6.74039 8.90995
88 Ar 2.31161 11.283 0.0357258
89 Ar 2.10954 11.1934 4.56573
90 Ar 2.24608 11.1586 8.48545
91 Ar 6.73305 2.19456 0.0506776
92 Ar 6.77466 2.23309 4.47451
93 Ar 6.63486 2.12433 8.84918
94 Ar 6.5451 6.51768 0.153235
95 Ar 6.78097 6.71232 4.45858
96 Ar 6.77681 6.43908 9.01943
97 Ar 6.38893 11.3054 -0.114349
98 Ar 6.87882 10.8214 4.34997
99 Ar 6.77796 11.0994 9.10488
100 Ar 11.1248 2.40504 0.0258597
101 Ar 10.9939 2.30166 4.46954
102 Ar 11.1035 2.45102 8.97253
103 Ar 11.2088 6.76819 -0.0148304
104 Ar 11.1614 6.67275 4.45365
105 Ar 11.0589 6.8557 9.09946
106 Ar 11.1734 11.1957 0.118873
107 Ar 10.9956 10.9702 4.61528
108 Ar 11.1678 10.9414 8.89603
ITEM: TIMESTEP
36010
ITEM: NUMBER OF ATOMS
108
ITEM: BOX BOUNDS pp pp pp
0.0000000000000000e+00 1.3349999400000000e+01
0.0000000000000000e+00 1.3349999400000000e+01
0.0000000000000000e+00 1.3349999400000000e+01
ITEM: ATOMS id element xu yu zu
1 Ar -0.110007 0.091523 0.0580259
2 Ar -0.220347 0.175968 4.54379
3 Ar -0.148269 0.0650381 8.77264
4 Ar 0.0504127 4.59958 -0.138188
5 Ar 0.0513646 4.55675 4.49595
6 Ar 0.0169449 4.58918 9.07724
7 Ar 0.174523 9.07888 -0.0616325
8 Ar -0.175396 8.85266 4.19923
9 Ar 0.227399 9.00933 8.85736
10 Ar 4.52734 0.284113 0.00977302
11 Ar 4.57433 -0.34089 4.63568
12 Ar 4.32359 0.0407536 8.67936
13 Ar 4.43887 4.02767 0.0437321
14 Ar 4.34611 4.54017 4.3569
15 Ar 4.44347 4.38567 8.81925
16 Ar 4.30414 8.90644 0.0324949
17 Ar 4.34185 8.89802 4.22664
18 Ar 4.4902 8.94112 9.0529
19 Ar 8.92934 -0.125005 0.0148241
20 Ar 8.84592 -0.230833 4.57172
21 Ar 9.03429 0.0939836 8.88861
22 Ar 8.81821 4.52815 0.158303
23 Ar 8.84659 4.50756 4.39111
24 Ar 8.81027 4.54725 9.18316
25 Ar 8.75686 8.84224 0.0496295
26 Ar 8.89774 8.8753 4.19244
27 Ar 8.71523 8.80764 9.0927
28 Ar 0.208576 2.44623 2.14623
29 Ar 0.112548 2.48786 6.73772
30 Ar -0.150058 2.05047 11.1506
31 Ar 0.0965449 6.73926 2.0918
32 Ar -0.104274 6.63768 6.69093
33 Ar 0.234447 6.95426 11.0048
34 Ar -0.0435593 11.2559 2.39897
35 Ar -0.0239517 11.0048 6.60714
36 Ar -0.012105 11.3097 10.9624
37 Ar 4.33418 2.18397 2.51636
38 Ar 4.64066 2.17881 6.4493
39 Ar 4.3315 2.06059 11.1757
40 Ar 4.3146 6.56127 2.32701
41 Ar 4.71633 6.69671 6.68641
42 Ar 4.58668 6.58573 10.9976
43 Ar 4.43423 11.2268 2.23762
44 Ar 4.56961 11.0438 6.69864
45 Ar 4.31431 11.3104 11.0364
46 Ar 9.07528 2.02316 2.10418
47 Ar 8.78656 2.25156 6.66291
48 Ar 9.00805 2.13351 11.1484
49 Ar 8.8999 6.66221 2.22503
50 Ar 9.03694 6.76156 6.68156
51 Ar 8.87077 6.64922 11.3106
52 Ar 8.91228 11.13 2.11407
53 Ar 8.86911 10.899 6.80982
54 Ar 8.99047 11.1166 11.2299
55 Ar 2.29468 -0.0355752 2.26281
56 Ar 2.1135 0.0606555 6.66144
57 Ar 2.22032 -0.193287 11.0514
58 Ar 2.25649 4.50602 1.95664
59 Ar 2.31927 4.51529 6.64028
60 Ar 2.22327 4.39204 10.9421
61 Ar 2.07268 8.92201 2.13223
62 Ar 2.06288 8.72387 6.4884
63 Ar 2.38444 9.00376 10.9732
64 Ar 6.58263 -0.129449 2.23455
65 Ar 6.82295 -0.179502 6.76254
66 Ar 6.79436 0.131647 11.168
67 Ar 6.6935 4.29139 2.35456
68 Ar 6.69618 4.49821 6.58801
69 Ar 6.51361 4.13209 11.2709
70 Ar 6.47407 8.9673 2.13042
71 Ar 6.66986 8.83019 6.7653
72 Ar 6.67161 8.806 11.3661
73 Ar 11.09 -0.0957839 2.34127
74 Ar 10.9294 0.164327 6.63269
75 Ar 11.175 -0.104727 11.141
76 Ar 11.3219 4.59741 2.20602
77 Ar 11.136 4.47026 6.67055
78 Ar 11.1538 4.59436 11.109
79 Ar 11.1082 8.92408 2.07834
80 Ar 11.0994 8.69084 6.6322
81 Ar 11.2431 9.02847 11.2768
82 Ar 2.11445 2.19852 -0.0811783
83 Ar 2.16406 2.29241 4.55783
84 Ar 2.16331 2.16204 8.82312
85 Ar 2.29999 6.66956 -0.0669411
86 Ar 2.21227 6.69746 4.32953
87 Ar 2.38973 6.75478 8.89614
88 Ar 2.30889 11.2708 0.0473809
89 Ar 2.11326 11.1734 4.56897
90 Ar 2.25334 11.1617 8.4755
91 Ar 6.72811 2.18299 0.0690042
92 Ar 6.76627 2.23798 4.47928
93 Ar 6.6271 2.11785 8.83
94 Ar 6.55404 6.51341 0.127929
95 Ar 6.79324 6.7074 4.44324
96 Ar 6.76879 6.43919 9.02864
97 Ar 6.38663 11.2933 -0.0982675
98 Ar 6.87555 10.822 4.34158
99 Ar 6.78009 11.0953 9.08707
100 Ar 11.1264 2.38962 0.0502896
101 Ar 11.0028 2.2958 4.46257
102 Ar 11.0836 2.45225 8.96795
103 Ar 11.2092 6.76227 -0.0168968
104 Ar 11.168 6.68781 4.44393
105 Ar 11.0668 6.81647 9.09317
106 Ar 11.1816 11.1949 0.122175
107 Ar 10.9934 10.9867 4.63168
108 Ar 11.1753 10.9524 8.89383
ITEM: TIMESTEP
36020
ITEM: NUMBER OF ATOMS
108
ITEM: BOX BOUNDS pp pp pp
0.0000000000000000e+00 1.3349999400000000e+01
0.0000000000000000e+00 1.3349999400000000e+01
0.0000000000000000e+00 1.3349999400000000e+01
ITEM: ATOMS id element xu yu zu
1 Ar -0.106675 0.0966294 0.0570083
2 Ar -0.211894 0.176266 4.55124
3 Ar -0.150424 0.0874913 8.75361
4 Ar 0.0407499 4.59612 -0.137437
5 Ar 0.0528394 4.55726 4.4951
6 Ar -0.00264576 4.60186 9.07936
7 Ar 0.180363 9.07673 -0.0746709
8 Ar -0.185074 8.8606 4.20763
9 Ar 0.231106 9.00083 8.85557
10 Ar 4.52085 0.298774 0.0222421
11 Ar 4.56857 -0.323624 4.63033
12 Ar 4.31472 0.0406285 8.687
13 Ar 4.44476 4.03692 0.0186542
14 Ar 4.3677 4.54259 4.3598
15 Ar 4.45027 4.37043 8.80866
16 Ar 4.30895 8.89479 0.0066265
17 Ar 4.33702 8.89009 4.22885
18 Ar 4.50318 8.94099 9.05447
19 Ar 8.93655 -0.135038 0.020385
20 Ar 8.84235 -0.221739 4.5504
21 Ar 9.02054 0.0899529 8.89476
22 Ar 8.81768 4.51266 0.160811
23 Ar 8.86191 4.49401 4.38872
24 Ar 8.8133 4.52902 9.16959
25 Ar 8.75474 8.82951 0.0649349
26 Ar 8.88958 8.87667 4.19382
27 Ar 8.72207 8.80685 9.08013
28 Ar 0.183538 2.44402 2.14082
29 Ar 0.111876 2.45864 6.74889
30 Ar -0.137717 2.06657 11.1454
31 Ar 0.0942777 6.77399 2.08394
32 Ar -0.0783029 6.64474 6.6958
33 Ar 0.214455 6.95814 11.0148
34 Ar -0.0564012 11.2445 2.42341
35 Ar -0.0285519 11.0032 6.62426
36 Ar -0.0200231 11.3156 10.9473
37 Ar 4.31519 2.1858 2.52186
38 Ar 4.64626 2.17407 6.44709
39 Ar 4.31619 2.05826 11.1894
40 Ar 4.33592 6.55491 2.31782
41 Ar 4.7006 6.68664 6.71267
42 Ar 4.58458 6.58628 11.0057
43 Ar 4.44975 11.2017 2.25094
44 Ar 4.56944 11.0404 6.67917
45 Ar 4.32072 11.3034 11.0456
46 Ar 9.07457 2.01884 2.09251
47 Ar 8.80413 2.25634 6.67072
48 Ar 9.02346 2.14672 11.1478
49 Ar 8.90379 6.67178 2.22255
50 Ar 9.04616 6.76954 6.67066
51 Ar 8.87062 6.66206 11.3273
52 Ar 8.90948 11.1401 2.12684
53 Ar 8.87702 10.8967 6.82156
54 Ar 8.98012 11.1081 11.2222
55 Ar 2.28572 -0.0310391 2.2709
56 Ar 2.10376 0.0625572 6.66384
57 Ar 2.19598 -0.169727 11.0635
58 Ar 2.24101 4.49783 1.95737
59 Ar 2.34475 4.51074 6.63583
60 Ar 2.21027 4.38926 10.9536
61 Ar 2.07084 8.90836 2.14612
62 Ar 2.0693 8.70746 6.49691
63 Ar 2.38954 9.0103 10.981
64 Ar 6.59981 -0.127295 2.21655
65 Ar 6.82715 -0.167973 6.75728
66 Ar 6.78961 0.141069 11.1816
67 Ar 6.67672 4.28254 2.34929
68 Ar 6.6736 4.50052 6.62135
69 Ar 6.51953 4.14069 11.2792
70 Ar 6.48542 8.97353 2.11049
71 Ar 6.67658 8.80573 6.74829
72 Ar 6.66109 8.81683 11.3602
73 Ar 11.1004 -0.0921325 2.32159
74 Ar 10.9306 0.160913 6.64539
75 Ar 11.1952 -0.100224 11.1336
76 Ar 11.3231 4.61515 2.18322
77 Ar 11.1111 4.49093 6.66908
78 Ar 11.1658 4.5795 11.096
79 Ar 11.0969 8.92999 2.0791
80 Ar 11.1053 8.71979 6.65016
81 Ar 11.2477 9.03257 11.2913
82 Ar 2.10838 2.18659 -0.0808436
83 Ar 2.16214 2.31059 4.5488
84 Ar 2.16965 2.14826 8.82979
85 Ar 2.2977 6.68157 -0.0703902
86 Ar 2.21079 6.70423 4.33512
87 Ar 2.3947 6.7679 8.88006
88 Ar 2.30491 11.2585 0.0585332
89 Ar 2.11809 11.1527 4.57077
90 Ar 2.26058 11.1639 8.47009
91 Ar 6.7258 2.17049 0.0894173
92 Ar 6.7585 2.24004 4.48197
93 Ar 6.61957 2.11282 8.81176
94 Ar 6.56135 6.50942 0.102443
95 Ar 6.80339 6.70335 4.42688
96 Ar 6.75873 6.44269 9.03657
97 Ar 6.38701 11.2788 -0.0823331
98 Ar 6.86835 10.8262 4.33592
99 Ar 6.78054 11.0926 9.0694
100 Ar 11.1288 2.37331 0.0739087
101 Ar 11.0126 2.29101 4.45457
102 Ar 11.0643 2.4518 8.96159
103 Ar 11.2094 6.75609 -0.0196954
104 Ar 11.1734 6.70164 4.43224
105 Ar 11.0757 6.77731 9.08561
106 Ar 11.1908 11.193 0.123721
107 Ar 10.9925 11.0047 4.64644
108 Ar 11.1811 10.9643 8.89018
ITEM: TIMESTEP
36030
ITEM: NUMBER OF ATOMS
108
ITEM: BOX BOUNDS pp pp pp
0.0000000000000000e+00 1.3349999400000000e+01
0.0000000000000000e+00 1.3349999400000000e+01
0.0000000000000000e+00 1.3349999400000000e+01
ITEM: ATOMS id element xu yu zu
1 Ar -0.101885 0.100032 0.0572385
2 Ar -0.201096 0.1757 4.55838
3 Ar -0.152625 0.109251 8.73418
4 Ar 0.0309406 4.59176 -0.13818
5 Ar 0.0539528 4.55697 4.49271
6 Ar -0.0220186 4.61377 9.07844
7 Ar 0.184937 9.07486 -0.0882021
8 Ar -0.192506 8.86907 4.21966
9 Ar 0.231713 8.99114 8.85389
10 Ar 4.51154 0.309498 0.0367654
11 Ar 4.56256 -0.302639 4.62305
12 Ar 4.30863 0.0400931 8.69645
13 Ar 4.45002 4.05074 -0.00533407
14 Ar 4.39047 4.54396 4.36537
15 Ar 4.45743 4.35388 8.79887
16 Ar 4.31469 8.88318 -0.0195303
17 Ar 4.33299 8.88262 4.23456
18 Ar 4.51858 8.94106 9.05269
19 Ar 8.94352 -0.143251 0.0249825
20 Ar 8.83833 -0.21032 4.527
21 Ar 9.00619 0.0838137 8.90223
22 Ar 8.81904 4.4953 0.161667
23 Ar 8.87951 4.47984 4.38675
24 Ar 8.8178 4.5081 9.15309
25 Ar 8.7542 8.8185 0.0805342
26 Ar 8.88347 8.87629 4.1978
27 Ar 8.73123 8.80582 9.06762
28 Ar 0.155278 2.43889 2.13777
29 Ar 0.107589 2.42871 6.75973
30 Ar -0.123477 2.08538 11.1391
31 Ar 0.0907069 6.807 2.07631
32 Ar -0.0511138 6.65145 6.70186
33 Ar 0.192619 6.95973 11.0265
34 Ar -0.0683083 11.233 2.44611
35 Ar -0.0357213 11.0032 6.6404
36 Ar -0.0257422 11.3182 10.9341
37 Ar 4.29797 2.18643 2.5258
38 Ar 4.64877 2.1695 6.44663
39 Ar 4.30119 2.05694 11.1976
40 Ar 4.36026 6.55067 2.30462
41 Ar 4.68077 6.67734 6.7381
42 Ar 4.58045 6.58598 11.0169
43 Ar 4.46331 11.1754 2.26403
44 Ar 4.56988 11.0341 6.65987
45 Ar 4.33046 11.2953 11.0544
46 Ar 9.07055 2.01689 2.08419
47 Ar 8.8225 2.26279 6.67924
48 Ar 9.03833 2.1616 11.1489
49 Ar 8.90775 6.68098 2.21926
50 Ar 9.05185 6.77494 6.66039
51 Ar 8.87033 6.67475 11.3437
52 Ar 8.90584 11.1492 2.13987
53 Ar 8.8855 10.8952 6.83296
54 Ar 8.96869 11.0991 11.2141
55 Ar 2.27494 -0.0252154 2.28023
56 Ar 2.09439 0.0653174 6.66315
57 Ar 2.17009 -0.142318 11.075
58 Ar 2.22522 4.48932 1.96144
59 Ar 2.36984 4.50748 6.63274
60 Ar 2.19877 4.38689 10.9677
61 Ar 2.07208 8.89698 2.16136
62 Ar 2.0789 8.69252 6.5056
63 Ar 2.39276 9.01802 10.9915
64 Ar 6.61882 -0.122556 2.2006
65 Ar 6.83012 -0.156369 6.75158
66 Ar 6.78345 0.14879 11.1931
67 Ar 6.65922 4.27501 2.34233
68 Ar 6.65273 4.50222 6.65514
69 Ar 6.52764 4.15136 11.285
70 Ar 6.49834 8.97727 2.08931
71 Ar 6.68398 8.78212 6.73085
72 Ar 6.64906 8.82905 11.3526
73 Ar 11.1115 -0.0869399 2.30242
74 Ar 10.9344 0.155666 6.65913
75 Ar 11.2125 -0.0943251 11.1261
76 Ar 11.3221 4.63131 2.16129
77 Ar 11.0852 4.51144 6.66852
78 Ar 11.1773 4.56388 11.0861
79 Ar 11.0861 8.93573 2.08012
80 Ar 11.1128 8.75193 6.66972
81 Ar 11.2509 9.03561 11.3043
82 Ar 2.10224 2.17385 -0.081065
83 Ar 2.16034 2.32741 4.53864
84 Ar 2.17685 2.13605 8.83814
85 Ar 2.29649 6.69334 -0.0758482
86 Ar 2.20793 6.71011 4.34207
87 Ar 2.3989 6.77931 8.86249
88 Ar 2.29984 11.2462 0.069199
89 Ar 2.12394 11.1313 4.57128
90 Ar 2.26776 11.1648 8.46936
91 Ar 6.72614 2.15749 0.111431
92 Ar 6.75168 2.2394 4.48264
93 Ar 6.6124 2.10919 8.79502
94 Ar 6.56705 6.50572 0.0771895
95 Ar 6.81116 6.6999 4.40992
96 Ar 6.74724 6.44939 9.04339
97 Ar 6.38999 11.2622 -0.0668853
98 Ar 6.85731 10.8339 4.33318
99 Ar 6.77917 11.0913 9.05199
100 Ar 11.1322 2.35629 0.0960882
101 Ar 11.0233 2.28732 4.44562
102 Ar 11.0461 2.44958 8.95336
103 Ar 11.2093 6.74979 -0.0232945
104 Ar 11.1776 6.71419 4.41898
105 Ar 11.0853 6.73901 9.07682
106 Ar 11.2008 11.19 0.123429
107 Ar 10.9928 11.024 4.65938
108 Ar 11.185 10.977 8.88533
ITEM: TIMESTEP
36040
ITEM: NUMBER OF ATOMS
108
ITEM: BOX BOUNDS pp pp pp
0.0000000000000000e+00 1.3349999400000000e+01
0.0000000000000000e+00 1.3349999400000000e+01
0.0000000000000000e+00 1.3349999400000000e+01
ITEM: ATOMS id element xu yu zu
1 Ar -0.0956647 0.1015 0.0585945
2 Ar -0.188167 0.174186 4.56505
3 Ar -0.154864 0.129881 8.71496
4 Ar 0.0212338 4.58659 -0.140276
5 Ar 0.0544963 4.55597 4.48901
6 Ar -0.0404157 4.62457 9.07423
7 Ar 0.188322 9.07345 -0.10182
8 Ar -0.197667 8.87797 4.23543
9 Ar 0.229258 8.98042 8.85256
10 Ar 4.49952 0.315793 0.0532947
11 Ar 4.55628 -0.278291 4.61381
12 Ar 4.30548 0.0389337 8.70755
13 Ar 4.45419 4.06886 -0.0276536
14 Ar 4.4141 4.54451 4.37347
15 Ar 4.46459 4.33619 8.79064
16 Ar 4.32128 8.87177 -0.0453603
17 Ar 4.33015 8.87531 4.24363
18 Ar 4.53608 8.94136 9.04765
19 Ar 8.95029 -0.149696 0.028182
20 Ar 8.83408 -0.196573 4.50209
21 Ar 8.99135 0.0756832 8.91111
22 Ar 8.82224 4.47638 0.160928
23 Ar 8.89877 4.46528 4.38503
24 Ar 8.82319 4.48538 9.134
25 Ar 8.7552 8.8096 0.095938
26 Ar 8.8795 8.87451 4.20442
27 Ar 8.74269 8.80433 9.05543
28 Ar 0.12421 2.43092 2.13716
29 Ar 0.0997694 2.39916 6.76993
30 Ar -0.107806 2.1067 11.1316
31 Ar 0.0857189 6.83769 2.06893
32 Ar -0.0234777 6.65754 6.70879
33 Ar 0.169458 6.95901 11.0398
34 Ar -0.0791068 11.2215 2.46675
35 Ar -0.0449675 11.005 6.6553
36 Ar -0.0289415 11.3173 10.9227
37 Ar 4.28278 2.18603 2.52794
38 Ar 4.64792 2.16504 6.44788
39 Ar 4.28693 2.05671 11.2
40 Ar 4.38696 6.54842 2.2877
41 Ar 4.65734 6.66915 6.76217
42 Ar 4.57412 6.58473 11.0309
43 Ar 4.47458 11.1485 2.27673
44 Ar 4.57101 11.0251 6.64091
45 Ar 4.34292 11.2871 11.063
46 Ar 9.06326 2.01734 2.07959
47 Ar 8.8413 2.27082 6.68811
48 Ar 9.05232 2.17771 11.1518
49 Ar 8.91166 6.68933 2.21516
50 Ar 9.05414 6.77795 6.65077
51 Ar 8.8701 6.68689 11.359
52 Ar 8.90168 11.1571 2.15295
53 Ar 8.89417 10.8947 6.84365
54 Ar 8.95643 11.0898 11.2056
55 Ar 2.26246 -0.0185668 2.29075
56 Ar 2.08579 0.0687425 6.65924
57 Ar 2.14333 -0.112115 11.0859
58 Ar 2.20945 4.48088 1.96858
59 Ar 2.39388 4.50522 6.63101
60 Ar 2.18881 4.38515 10.9838
61 Ar 2.07659 8.8882 2.17753
62 Ar 2.09169 8.67969 6.51437
63 Ar 2.39394 9.02668 11.0041
64 Ar 6.63907 -0.115442 2.18702
65 Ar 6.83189 -0.14495 6.74529
66 Ar 6.77599 0.154807 11.2027
67 Ar 6.64144 4.26893 2.33373
68 Ar 6.63423 4.5033 6.6886
69 Ar 6.53801 4.16354 11.2881
70 Ar 6.51251 8.97834 2.06739
71 Ar 6.69189 8.75963 6.71304
72 Ar 6.63607 8.84256 11.3433
73 Ar 11.1233 -0.0802412 2.28414
74 Ar 10.9407 0.148663 6.6735
75 Ar 11.2265 -0.0869525 11.1184
76 Ar 11.319 4.64583 2.14066
77 Ar 11.0591 4.53148 6.6687
78 Ar 11.1878 4.54761 11.0798
79 Ar 11.0759 8.94133 2.08143
80 Ar 11.1217 8.78619 6.69066
81 Ar 11.2524 9.03758 11.3156
82 Ar 2.09612 2.1608 -0.0814485
83 Ar 2.15846 2.34274 4.52765
84 Ar 2.18479 2.12588 8.848
85 Ar 2.29619 6.70445 -0.0830419
86 Ar 2.20398 6.71468 4.34992
87 Ar 2.4022 6.78868 8.84435
88 Ar 2.29387 11.2342 0.0793868
89 Ar 2.13069 11.1097 4.57071
90 Ar 2.27487 11.1645 8.47332
91 Ar 6.72892 2.14445 0.134453
92 Ar 6.74606 2.23627 4.4814
93 Ar 6.60572 2.1069 8.78026
94 Ar 6.57124 6.50231 0.052554
95 Ar 6.8164 6.69674 4.39274
96 Ar 6.73494 6.45905 9.04927
97 Ar 6.39547 11.2441 -0.0522116
98 Ar 6.84265 10.8448 4.33343
99 Ar 6.77593 11.0914 9.03491
100 Ar 11.1367 2.33872 0.116249
101 Ar 11.0349 2.28471 4.43588
102 Ar 11.0293 2.4455 8.94327
103 Ar 11.2089 6.74354 -0.0277389
104 Ar 11.1805 6.72542 4.4046
105 Ar 11.0952 6.70233 9.06683
106 Ar 11.2114 11.1859 0.121262
107 Ar 10.9941 11.0445 4.67032
108 Ar 11.187 10.9904 8.87964
ITEM: TIMESTEP
36050
ITEM: NUMBER OF ATOMS
108
ITEM: BOX BOUNDS pp pp pp
0.0000000000000000e+00 1.3349999400000000e+01
0.0000000000000000e+00 1.3349999400000000e+01
0.0000000000000000e+00 1.3349999400000000e+01
ITEM: ATOMS id element xu yu zu
1 Ar -0.0880825 0.100838 0.0608935
2 Ar -0.173368 0.171651 4.57108
3 Ar -0.157088 0.14889 8.69667
4 Ar 0.0118907 4.58074 -0.143508
5 Ar 0.0542669 4.55435 4.48429
6 Ar -0.0570722 4.63389 9.06661
7 Ar 0.19061 9.07262 -0.115091
8 Ar -0.200569 8.88715 4.25494
9 Ar 0.223836 8.96883 8.85178
10 Ar 4.48501 0.31736 0.0716369
11 Ar 4.5497 -0.251046 4.60265
12 Ar 4.30529 0.0369379 8.72013
13 Ar 4.4569 4.09091 -0.0478493
14 Ar 4.43828 4.5445 4.38388
15 Ar 4.47136 4.31759 8.78468
16 Ar 4.32865 8.86074 -0.0702482
17 Ar 4.32887 8.86787 4.25587
18 Ar 4.55521 8.94188 9.03956
19 Ar 8.95688 -0.154454 0.0296231
20 Ar 8.82981 -0.180529 4.47624
21 Ar 8.97611 0.065739 8.92138
22 Ar 8.82717 4.45624 0.158665
23 Ar 8.91906 4.45057 4.38334
24 Ar 8.82889 4.46175 9.11272
25 Ar 8.75774 8.80318 0.110606
26 Ar 8.87762 8.87177 4.2137
27 Ar 8.75634 8.80218 9.04381
28 Ar 0.0908368 2.42028 2.13905
29 Ar 0.0886038 2.3711 6.77913
30 Ar -0.0912196 2.13022 11.1231
31 Ar 0.079251 6.86554 2.06184
32 Ar 0.00384154 6.66272 6.71625
33 Ar 0.145474 6.95599 11.0541
34 Ar -0.0886532 11.2102 2.48504
35 Ar -0.0556822 11.0086 6.66876
36 Ar -0.0294053 11.313 10.9131
37 Ar 4.26987 2.18484 2.52806
38 Ar 4.64355 2.16065 6.45079
39 Ar 4.27385 2.05762 11.1969
40 Ar 4.41531 6.54798 2.26745
41 Ar 4.63095 6.66231 6.7844
42 Ar 4.56543 6.58244 11.0471
43 Ar 4.48331 11.1218 2.28888
44 Ar 4.57285 11.0137 6.62239
45 Ar 4.35752 11.2792 11.0713
46 Ar 9.05291 2.02015 2.07901
47 Ar 8.86013 2.28021 6.69697
48 Ar 9.06514 2.19462 11.1568
49 Ar 8.91539 6.69638 2.21026
50 Ar 9.0532 6.77884 6.6418
51 Ar 8.87008 6.69814 11.3727
52 Ar 8.89732 11.1638 2.16592
53 Ar 8.9026 10.8954 6.85326
54 Ar 8.94354 11.0803 11.1969
55 Ar 2.24839 -0.0115293 2.30238
56 Ar 2.0784 0.0725743 6.65212
57 Ar 2.11635 -0.0802005 11.096
58 Ar 2.19401 4.47288 1.97851
59 Ar 2.41623 4.50363 6.63062
60 Ar 2.18038 4.38425 11.0014
61 Ar 2.08446 8.88223 2.1942
62 Ar 2.10762 8.66963 6.52314
63 Ar 2.39297 9.03603 11.0181
64 Ar 6.65993 -0.106275 2.17602
65 Ar 6.83252 -0.133943 6.73828
66 Ar 6.76738 0.159167 11.2102
67 Ar 6.62384 4.26438 2.3236
68 Ar 6.6187 4.50378 6.72092
69 Ar 6.55066 4.17666 11.2882
70 Ar 6.52764 8.9766 2.04539
71 Ar 6.70013 8.73847 6.69497
72 Ar 6.62272 8.8572 11.3323
73 Ar 11.1357 -0.0721237 2.26707
74 Ar 10.9487 0.140021 6.68804
75 Ar 11.237 -0.07806 11.1108
76 Ar 11.3139 4.65863 2.12173
77 Ar 11.0336 4.55076 6.66943
78 Ar 11.197 4.53083 11.0773
79 Ar 11.0666 8.94681 2.08312
80 Ar 11.1318 8.82139 6.71266
81 Ar 11.2519 9.03848 11.3246
82 Ar 2.0901 2.14799 -0.0815647
83 Ar 2.15631 2.35652 4.51617
84 Ar 2.19329 2.11811 8.85908
85 Ar 2.29659 6.71456 -0.0916284
86 Ar 2.19922 6.7176 4.35821
87 Ar 2.40449 6.79572 8.82659
88 Ar 2.28723 11.2229 0.0890999
89 Ar 2.13821 11.0882 4.56924
90 Ar 2.28183 11.1629 8.48186
91 Ar 6.73382 2.13182 0.157798
92 Ar 6.74187 2.2309 4.47841
93 Ar 6.59971 2.10581 8.7679
94 Ar 6.57409 6.49923 0.0288895
95 Ar 6.81905 6.69359 4.37565
96 Ar 6.7224 6.47137 9.05441
97 Ar 6.40336 11.225 -0.0385383
98 Ar 6.82476 10.8587 4.33662
99 Ar 6.77081 11.0929 9.01823
100 Ar 11.1422 2.32074 0.133879
101 Ar 11.0474 2.28309 4.42553
102 Ar 11.0145 2.43946 8.93139
103 Ar 11.2081 6.73751 -0.0330454
104 Ar 11.1824 6.73532 4.38958
105 Ar 11.1047 6.668 9.05571
106 Ar 11.2224 11.181 0.117234
107 Ar 10.9962 11.0661 4.67911
108 Ar 11.1871 11.0044 8.87355
ITEM: TIMESTEP
36060
ITEM: NUMBER OF ATOMS
108
ITEM: BOX BOUNDS pp pp pp
0.0000000000000000e+00 1.3349999400000000e+01
0.0000000000000000e+00 1.3349999400000000e+01
0.0000000000000000e+00 1.3349999400000000e+01
ITEM: ATOMS id element xu yu zu
1 Ar -0.0792496 0.0978917 0.0639084
2 Ar -0.157004 0.16804 4.57631
3 Ar -0.159188 0.165752 8.68007
4 Ar 0.00317129 4.5743 -0.147583
5 Ar 0.0530729 4.55222 4.47879
6 Ar -0.0712639 4.64136 9.05554
7 Ar 0.191888 9.07247 -0.127571
8 Ar -0.20126 8.89643 4.27813
9 Ar 0.2156 8.95653 8.85173
10 Ar 4.46829 0.314085 0.091466
11 Ar 4.54277 -0.221457 4.58966
12 Ar 4.30804 0.0339085 8.73394
13 Ar 4.4579 4.11638 -0.0656037
14 Ar 4.46271 4.54418 4.39631
15 Ar 4.47738 4.29835 8.78166
16 Ar 4.33673 8.8503 -0.0935959
17 Ar 4.3295 8.85994 4.27104
18 Ar 4.57543 8.94255 9.02871
19 Ar 8.96335 -0.157629 0.0290377
20 Ar 8.82577 -0.162262 4.45007
21 Ar 8.9606 0.0542152 8.933
22 Ar 8.83372 4.43528 0.154959
23 Ar 8.93974 4.43596 4.38146
24 Ar 8.83434 4.43811 9.08964
25 Ar 8.7618 8.79951 0.123965
26 Ar 8.87771 8.86851 4.22558
27 Ar 8.77204 8.79923 9.03295
28 Ar 0.0557532 2.40722 2.14345
29 Ar 0.0743617 2.34557 6.78694
30 Ar -0.0742579 2.15561 11.1136
31 Ar 0.0713161 6.89019 2.05508
32 Ar 0.0301254 6.66676 6.72387
33 Ar 0.121135 6.95068 11.0693
34 Ar -0.0968338 11.1992 2.50072
35 Ar -0.0671699 11.0141 6.68068
36 Ar -0.02704 11.3055 10.9052
37 Ar 4.25945 2.18311 2.526
38 Ar 4.63562 2.15631 6.45525
39 Ar 4.26238 2.05963 11.1887
40 Ar 4.44457 6.54915 2.24436
41 Ar 4.60234 6.65706 6.80433
42 Ar 4.55432 6.5791 11.0649
43 Ar 4.48934 11.0959 2.3003
44 Ar 4.57534 11.0005 6.60446
45 Ar 4.37368 11.2723 11.0794
46 Ar 9.03983 2.02529 2.08262
47 Ar 8.87861 2.29066 6.70544
48 Ar 9.0765 2.21186 11.1639
49 Ar 8.9188 6.70174 2.20461
50 Ar 9.04929 6.77795 6.63347
51 Ar 8.87043 6.70821 11.3842
52 Ar 8.89304 11.1689 2.17861
53 Ar 8.91039 10.8974 6.86143
54 Ar 8.93025 11.0709 11.1884
55 Ar 2.23283 -0.00449785 2.31505
56 Ar 2.07265 0.0765163 6.64198
57 Ar 2.08971 -0.047644 11.1055
58 Ar 2.17912 4.46563 1.99092
59 Ar 2.43631 4.50235 6.63149
60 Ar 2.17346 4.38441 11.02
61 Ar 2.09565 8.87916 2.21095
62 Ar 2.12656 8.66295 6.53183
63 Ar 2.38986 9.04582 11.0327
64 Ar 6.68075 -0.0954825 2.16777
65 Ar 6.83212 -0.123533 6.73044
66 Ar 6.75771 0.161949 11.2158
67 Ar 6.60685 4.26143 2.31205
68 Ar 6.60659 4.50375 6.75138
69 Ar 6.56556 4.19021 11.2855
70 Ar 6.54338 8.97201 2.024
71 Ar 6.70852 8.7188 6.67676
72 Ar 6.60959 8.87274 11.3197
73 Ar 11.1485 -0.062734 2.25152
74 Ar 10.9582 0.129903 6.70234
75 Ar 11.2441 -0.0676536 11.1032
76 Ar 11.307 4.66963 2.10483
77 Ar 11.0094 4.569 6.67051
78 Ar 11.2044 4.51366 11.0789
79 Ar 11.0583 8.9522 2.08526
80 Ar 11.1429 8.85635 6.73538
81 Ar 11.2493 9.03834 11.331
82 Ar 2.08429 2.13597 -0.080972
83 Ar 2.15372 2.36875 4.50453
84 Ar 2.20213 2.11303 8.87099
85 Ar 2.29746 6.72334 -0.101208
86 Ar 2.19397 6.71857 4.36649
87 Ar 2.40564 6.80022 8.81023
88 Ar 2.28013 11.2125 0.0983381
89 Ar 2.14637 11.067 4.56709
90 Ar 2.28859 11.1601 8.49472
91 Ar 6.74032 2.11999 0.180704
92 Ar 6.73921 2.22362 4.4739
93 Ar 6.59457 2.10576 8.75827
94 Ar 6.57587 6.49652 0.00650189
95 Ar 6.81911 6.69018 4.35894
96 Ar 6.71011 6.48602 9.05897
97 Ar 6.41354 11.2054 -0.0260257
98 Ar 6.80414 10.8751 4.34264
99 Ar 6.76386 11.0959 9.00195
100 Ar 11.1486 2.3025 0.148546
101 Ar 11.0606 2.28232 4.4148
102 Ar 11.0021 2.43144 8.91791
103 Ar 11.2068 6.73187 -0.0391977
104 Ar 11.1832 6.74391 4.37437
105 Ar 11.1134 6.63669 9.04354
106 Ar 11.2336 11.1753 0.1114
107 Ar 10.9989 11.0885 4.68558
108 Ar 11.1853 11.0192 8.86755
ITEM: TIMESTEP
36070
ITEM: NUMBER OF ATOMS
108
ITEM: BOX BOUNDS pp pp pp
0.0000000000000000e+00 1.3349999400000000e+01
0.0000000000000000e+00 1.3349999400000000e+01
0.0000000000000000e+00 1.3349999400000000e+01
ITEM: ATOMS id element xu yu zu
1 Ar -0.069312 0.0925474 0.0673861
2 Ar -0.139419 0.163311 4.58058
3 Ar -0.160984 0.179928 8.66597
4 Ar -0.00467983 4.56733 -0.152136
5 Ar 0.0507385 4.54973 4.4728
6 Ar -0.0823562 4.64662 9.04114
7 Ar 0.192234 9.07302 -0.138834
8 Ar -0.199819 8.90558 4.30483
9 Ar 0.204753 8.94368 8.85255
10 Ar 4.44974 0.306017 0.112351
11 Ar 4.53544 -0.190145 4.57499
12 Ar 4.31363 0.0296782 8.74874
13 Ar 4.45704 4.14467 -0.0807343
14 Ar 4.48711 4.54378 4.41043
15 Ar 4.48231 4.27879 8.78215
16 Ar 4.34543 8.84065 -0.114844
17 Ar 4.33234 8.85118 4.28887
18 Ar 4.59614 8.9433 9.0154
19 Ar 8.96974 -0.159332 0.0262634
20 Ar 8.82222 -0.141901 4.4242
21 Ar 8.94491 0.0413958 8.94586
22 Ar 8.84173 4.41394 0.149897
23 Ar 8.9602 4.42174 4.37914
24 Ar 8.83908 4.41527 9.06521
25 Ar 8.76739 8.79883 0.135438
26 Ar 8.87956 8.8652 4.23996
27 Ar 8.78957 8.79541 9.02304
28 Ar 0.0196309 2.39204 2.15032
29 Ar 0.0573804 2.32354 6.79296
30 Ar -0.0574669 2.18247 11.1032
31 Ar 0.0620186 6.91143 2.04873
32 Ar 0.0547352 6.66949 6.73129
33 Ar 0.0968709 6.94309 11.0848
34 Ar -0.103564 11.1887 2.51356
35 Ar -0.0786821 11.0216 6.69098
36 Ar -0.0218795 11.295 10.899
37 Ar 4.25167 2.18115 2.52162
38 Ar 4.62419 2.15202 6.46116
39 Ar 4.25295 2.0627 11.1759
40 Ar 4.474 6.55175 2.219
41 Ar 4.5724 6.65351 6.82154
42 Ar 4.54081 6.57474 11.0837
43 Ar 4.4926 11.0713 2.31079
44 Ar 4.57836 10.9859 6.58725
45 Ar 4.39086 11.2667 11.0872
46 Ar 9.02451 2.03267 2.09045
47 Ar 8.89636 2.30175 6.71315
48 Ar 9.08617 2.22899 11.173
49 Ar 8.92178 6.70507 2.19826
50 Ar 9.04269 6.77561 6.62579
51 Ar 8.87122 6.71689 11.3928
52 Ar 8.88911 11.1724 2.19089
53 Ar 8.91714 10.9011 6.86784
54 Ar 8.91674 11.0617 11.1801
55 Ar 2.21589 0.00218411 2.32868
56 Ar 2.06898 0.0802647 6.62916
57 Ar 2.06392 -0.0154723 11.1142
58 Ar 2.16495 4.45936 2.00546
59 Ar 2.45353 4.50102 6.63352
60 Ar 2.16801 4.38581 11.0389
61 Ar 2.11 8.87894 2.22739
62 Ar 2.14829 8.6602 6.54043
63 Ar 2.38466 9.05582 11.0471
64 Ar 6.7009 -0.0835741 2.16236
65 Ar 6.83076 -0.113854 6.72169
66 Ar 6.74712 0.163263 11.2197
67 Ar 6.59089 4.2601 2.29925
68 Ar 6.59825 4.50331 6.77928
69 Ar 6.58259 4.20371 11.2798
70 Ar 6.5594 8.96458 2.00399
71 Ar 6.71688 8.70076 6.65855
72 Ar 6.59723 8.8889 11.3056
73 Ar 11.1615 -0.0522832 2.23774
74 Ar 10.9684 0.118505 6.71594
75 Ar 11.2478 -0.0558017 11.0958
76 Ar 11.2983 4.67873 2.09023
77 Ar 10.9872 4.58595 6.67172
78 Ar 11.2096 4.49628 11.0844
79 Ar 11.0513 8.95755 2.08796
80 Ar 11.1546 8.88991 6.75842
81 Ar 11.2444 9.03723 11.3346
82 Ar 2.07881 2.1253 -0.079241
83 Ar 2.15055 2.37944 4.49306
84 Ar 2.21106 2.11081 8.88324
85 Ar 2.29852 6.73053 -0.111337
86 Ar 2.18848 6.71737 4.37435
87 Ar 2.40553 6.80205 8.79631
88 Ar 2.2728 11.2031 0.107099
89 Ar 2.15501 11.0465 4.56444
90 Ar 2.29508 11.1561 8.51157
91 Ar 6.74781 2.10933 0.202358
92 Ar 6.7381 2.21478 4.46811
93 Ar 6.59051 2.10655 8.75162
94 Ar 6.5769 6.49423 -0.0143644
95 Ar 6.81669 6.68629 4.34282
96 Ar 6.69849 6.50268 9.06313
97 Ar 6.4259 11.1859 -0.0147684
98 Ar 6.78139 10.8937 4.35125
99 Ar 6.75521 11.1001 8.98607
100 Ar 11.1557 2.28414 0.159902
101 Ar 11.0746 2.28225 4.40395
102 Ar 10.9925 2.4214 8.90312
103 Ar 11.2051 6.7268 -0.0461405
104 Ar 11.1831 6.7512 4.35942
105 Ar 11.1208 6.60899 9.03048
106 Ar 11.2449 11.1692 0.103859
107 Ar 11.0021 11.1115 4.68959
108 Ar 11.1816 11.0348 8.8622
ITEM: TIMESTEP
36080
ITEM: NUMBER OF ATOMS
108
ITEM: BOX BOUNDS pp pp pp
0.0000000000000000e+00 1.3349999400000000e+01
0.0000000000000000e+00 1.3349999400000000e+01
0.0000000000000000e+00 1.3349999400000000e+01
ITEM: ATOMS id element xu yu zu
1 Ar -0.0584423 0.0847366 0.0710676
2 Ar -0.120995 0.157444 4.58373
3 Ar -0.162225 0.190911 8.65516
4 Ar -0.0114454 4.5599 -0.156742
5 Ar 0.0471077 4.54699 4.46655
6 Ar -0.0898484 4.64932 9.02362
7 Ar 0.1917 9.07425 -0.14849
8 Ar -0.196351 8.91437 4.33479
9 Ar 0.191545 8.93043 8.85433
10 Ar 4.42979 0.293325 0.133795
11 Ar 4.52768 -0.157771 4.55882
12 Ar 4.32185 0.0241215 8.76425
13 Ar 4.45427 4.1751 -0.0931785
14 Ar 4.51118 4.54346 4.42588
15 Ar 4.48589 4.2593 8.78656
16 Ar 4.35469 8.83202 -0.133495
17 Ar 4.33763 8.84124 4.30899
18 Ar 4.61671 8.94404 8.99999
19 Ar 8.97611 -0.159683 0.0212496
20 Ar 8.81944 -0.119638 4.39925
21 Ar 8.92917 0.0276052 8.95981
22 Ar 8.851 4.39263 0.143581
23 Ar 8.97986 4.40815 4.37619
24 Ar 8.84272 4.39397 9.03991
25 Ar 8.77456 8.80126 0.144468
26 Ar 8.88295 8.86226 4.25668
27 Ar 8.8087 8.79071 9.01418
28 Ar -0.0167941 2.37509 2.15959
29 Ar 0.0380494 2.30585 6.79678
30 Ar -0.0413756 2.21039 11.0919
31 Ar 0.0515585 6.92918 2.04286
32 Ar 0.0771406 6.67079 6.73814
33 Ar 0.0730607 6.93325 11.1002
34 Ar -0.108784 11.1788 2.52342
35 Ar -0.0894587 11.031 6.69969
36 Ar -0.0140798 11.2819 10.8943
37 Ar 4.24662 2.17927 2.51485
38 Ar 4.60945 2.1478 6.46838
39 Ar 4.24594 2.06677 11.1596
40 Ar 4.50285 6.55563 2.19197
41 Ar 4.5421 6.6517 6.83568
42 Ar 4.52501 6.56942 11.1027