New structure

       108  atoms
         1  atom types

 0.00000000e+00   1.33499994e+01  xlo xhi
 0.00000000e+00   1.33499994e+01  ylo yhi
 0.00000000e+00   1.33499994e+01  zlo zhi

 Atoms

       1        1  0.000000000e+00  0.000000000e+00  0.000000000e+00
       2        1  0.000000000e+00  0.000000000e+00  4.449999938e+00
       3        1  0.000000000e+00  0.000000000e+00  8.899999890e+00
       4        1  0.000000000e+00  4.449999938e+00  0.000000000e+00
       5        1  0.000000000e+00  4.449999938e+00  4.449999938e+00
       6        1  0.000000000e+00  4.449999938e+00  8.899999890e+00
       7        1  0.000000000e+00  8.899999890e+00  0.000000000e+00
       8        1  0.000000000e+00  8.899999890e+00  4.449999938e+00
       9        1  0.000000000e+00  8.899999890e+00  8.899999890e+00
      10        1  4.449999938e+00  0.000000000e+00  0.000000000e+00
      11        1  4.449999938e+00  0.000000000e+00  4.449999938e+00
      12        1  4.449999938e+00  0.000000000e+00  8.899999890e+00
      13        1  4.449999938e+00  4.449999938e+00  0.000000000e+00
      14        1  4.449999938e+00  4.449999938e+00  4.449999938e+00
      15        1  4.449999938e+00  4.449999938e+00  8.899999890e+00
      16        1  4.449999938e+00  8.899999890e+00  0.000000000e+00
      17        1  4.449999938e+00  8.899999890e+00  4.449999938e+00
      18        1  4.449999938e+00  8.899999890e+00  8.899999890e+00
      19        1  8.899999890e+00  0.000000000e+00  0.000000000e+00
      20        1  8.899999890e+00  0.000000000e+00  4.449999938e+00
      21        1  8.899999890e+00  0.000000000e+00  8.899999890e+00
      22        1  8.899999890e+00  4.449999938e+00  0.000000000e+00
      23        1  8.899999890e+00  4.449999938e+00  4.449999938e+00
      24        1  8.899999890e+00  4.449999938e+00  8.899999890e+00
      25        1  8.899999890e+00  8.899999890e+00  0.000000000e+00
      26        1  8.899999890e+00  8.899999890e+00  4.449999938e+00
      27        1  8.899999890e+00  8.899999890e+00  8.899999890e+00
      28        1  0.000000000e+00  2.224999976e+00  2.224999976e+00
      29        1  0.000000000e+00  2.224999976e+00  6.674999714e+00
      30        1  0.000000000e+00  2.224999976e+00  1.112499925e+01
      31        1  0.000000000e+00  6.674999714e+00  2.224999976e+00
      32        1  0.000000000e+00  6.674999714e+00  6.674999714e+00
      33        1  0.000000000e+00  6.674999714e+00  1.112499925e+01
      34        1  0.000000000e+00  1.112499925e+01  2.224999976e+00
      35        1  0.000000000e+00  1.112499925e+01  6.674999714e+00
      36        1  0.000000000e+00  1.112499925e+01  1.112499925e+01
      37        1  4.449999938e+00  2.224999976e+00  2.224999976e+00
      38        1  4.449999938e+00  2.224999976e+00  6.674999714e+00
      39        1  4.449999938e+00  2.224999976e+00  1.112499925e+01
      40        1  4.449999938e+00  6.674999714e+00  2.224999976e+00
      41        1  4.449999938e+00  6.674999714e+00  6.674999714e+00
      42        1  4.449999938e+00  6.674999714e+00  1.112499925e+01
      43        1  4.449999938e+00  1.112499925e+01  2.224999976e+00
      44        1  4.449999938e+00  1.112499925e+01  6.674999714e+00
      45        1  4.449999938e+00  1.112499925e+01  1.112499925e+01
      46        1  8.899999890e+00  2.224999976e+00  2.224999976e+00
      47        1  8.899999890e+00  2.224999976e+00  6.674999714e+00
      48        1  8.899999890e+00  2.224999976e+00  1.112499925e+01
      49        1  8.899999890e+00  6.674999714e+00  2.224999976e+00
      50        1  8.899999890e+00  6.674999714e+00  6.674999714e+00
      51        1  8.899999890e+00  6.674999714e+00  1.112499925e+01
      52        1  8.899999890e+00  1.112499925e+01  2.224999976e+00
      53        1  8.899999890e+00  1.112499925e+01  6.674999714e+00
      54        1  8.899999890e+00  1.112499925e+01  1.112499925e+01
      55        1  2.224999976e+00  0.000000000e+00  2.224999976e+00
      56        1  2.224999976e+00  0.000000000e+00  6.674999714e+00
      57        1  2.224999976e+00  0.000000000e+00  1.112499925e+01
      58        1  2.224999976e+00  4.449999938e+00  2.224999976e+00
      59        1  2.224999976e+00  4.449999938e+00  6.674999714e+00
      60        1  2.224999976e+00  4.449999938e+00  1.112499925e+01
      61        1  2.224999976e+00  8.899999890e+00  2.224999976e+00
      62        1  2.224999976e+00  8.899999890e+00  6.674999714e+00
      63        1  2.224999976e+00  8.899999890e+00  1.112499925e+01
      64        1  6.674999714e+00  0.000000000e+00  2.224999976e+00
      65        1  6.674999714e+00  0.000000000e+00  6.674999714e+00
      66        1  6.674999714e+00  0.000000000e+00  1.112499925e+01
      67        1  6.674999714e+00  4.449999938e+00  2.224999976e+00
      68        1  6.674999714e+00  4.449999938e+00  6.674999714e+00
      69        1  6.674999714e+00  4.449999938e+00  1.112499925e+01
      70        1  6.674999714e+00  8.899999890e+00  2.224999976e+00
      71        1  6.674999714e+00  8.899999890e+00  6.674999714e+00
      72        1  6.674999714e+00  8.899999890e+00  1.112499925e+01
      73        1  1.112499925e+01  0.000000000e+00  2.224999976e+00
      74        1  1.112499925e+01  0.000000000e+00  6.674999714e+00
      75        1  1.112499925e+01  0.000000000e+00  1.112499925e+01
      76        1  1.112499925e+01  4.449999938e+00  2.224999976e+00
      77        1  1.112499925e+01  4.449999938e+00  6.674999714e+00
      78        1  1.112499925e+01  4.449999938e+00  1.112499925e+01
      79        1  1.112499925e+01  8.899999890e+00  2.224999976e+00
      80        1  1.112499925e+01  8.899999890e+00  6.674999714e+00
      81        1  1.112499925e+01  8.899999890e+00  1.112499925e+01
      82        1  2.224999976e+00  2.224999976e+00  0.000000000e+00
      83        1  2.224999976e+00  2.224999976e+00  4.449999938e+00
      84        1  2.224999976e+00  2.224999976e+00  8.899999890e+00
      85        1  2.224999976e+00  6.674999714e+00  0.000000000e+00
      86        1  2.224999976e+00  6.674999714e+00  4.449999938e+00
      87        1  2.224999976e+00  6.674999714e+00  8.899999890e+00
      88        1  2.224999976e+00  1.112499925e+01  0.000000000e+00
      89        1  2.224999976e+00  1.112499925e+01  4.449999938e+00
      90        1  2.224999976e+00  1.112499925e+01  8.899999890e+00
      91        1  6.674999714e+00  2.224999976e+00  0.000000000e+00
      92        1  6.674999714e+00  2.224999976e+00  4.449999938e+00
      93        1  6.674999714e+00  2.224999976e+00  8.899999890e+00
      94        1  6.674999714e+00  6.674999714e+00  0.000000000e+00
      95        1  6.674999714e+00  6.674999714e+00  4.449999938e+00
      96        1  6.674999714e+00  6.674999714e+00  8.899999890e+00
      97        1  6.674999714e+00  1.112499925e+01  0.000000000e+00
      98        1  6.674999714e+00  1.112499925e+01  4.449999938e+00
      99        1  6.674999714e+00  1.112499925e+01  8.899999890e+00
     100        1  1.112499925e+01  2.224999976e+00  0.000000000e+00
     101        1  1.112499925e+01  2.224999976e+00  4.449999938e+00
     102        1  1.112499925e+01  2.224999976e+00  8.899999890e+00
     103        1  1.112499925e+01  6.674999714e+00  0.000000000e+00
     104        1  1.112499925e+01  6.674999714e+00  4.449999938e+00
     105        1  1.112499925e+01  6.674999714e+00  8.899999890e+00
     106        1  1.112499925e+01  1.112499925e+01  0.000000000e+00
     107        1  1.112499925e+01  1.112499925e+01  4.449999938e+00
     108        1  1.112499925e+01  1.112499925e+01  8.899999890e+00

 Masses

       1  3.9948000e+01 # Ar
