LAMMPS (10 Sep 2025)
  using 1 OpenMP thread(s) per MPI task
Reading data file ...
  orthogonal box = (0 0 0) to (13.349999 13.349999 13.349999)
  1 by 1 by 1 MPI processor grid
  reading atoms ...
  108 atoms
  read_data CPU = 0.001 seconds
CUDA found, setting device type to torch::kCUDA.
Loading MACE model from "ar_finetune_epoch1.model-lammps.pt" ... finished.
  - The torch_float_dtype is: Float
  - The r_max is: 6.
  - The model has: 2 layers.
  - The MACE model atomic numbers are: 18.
  - The pair_coeff atomic numbers are: 18.
  - Mapping LAMMPS type 1 (Ar) to MACE type 1.
Generated 0 of 0 mixed pair_coeff terms from geometric mixing rule
Neighbor list info ...
  update: every = 1 steps, delay = 0 steps, check = yes
  max neighbors/atom: 2000, page size: 100000
  master list distance cutoff = 14
  ghost atom cutoff = 14
  binsize = 7, bins = 2 2 2
  1 neighbor lists, perpetual/occasional/extra = 1 0 0
  (1) pair mace, perpetual
      attributes: full, newton on
      pair build: full/bin/atomonly
      stencil: full/bin/3d
      bin: standard
Setting up Verlet run ...
  Unit style    : metal
  Current step  : 0
  Time step     : 0.0005
Per MPI rank memory allocation (min/avg/max) = 3.136 | 3.136 | 3.136 Mbytes
   Step          Time           CPU           PotEng         KinEng         TotEng          Temp          Press          Volume        Density    
         0   0              0              188.06347      4.1492507      192.21272      300            148648.4       2379.2701      3.0110926    
        10   0.005          2.5289509      188.14773      4.0650393      192.21277      293.91133      148774.85      2379.2701      3.0110926    
        20   0.01           3.3881949      188.39186      3.821419       192.21328      276.29704      149142.63      2379.2701      3.0110926    
        30   0.015          4.1640124      188.77102      3.4442214      192.21524      249.02482      149710.51      2379.2701      3.0110926    
        40   0.02           4.9433751      189.24653      2.9732062      192.21973      214.96938      150417.02      2379.2701      3.0110926    
        50   0.025          5.7239758      189.76969      2.4577259      192.22742      177.69902      151186.02      2379.2701      3.0110926    
        60   0.03           6.5039056      190.28704      1.9511625      192.2382       141.07336      151936.97      2379.2701      3.0110926    
        70   0.035          7.2752674      190.74672      1.5045627      192.25128      108.78321      152593.53      2379.2701      3.0110926    
        80   0.04           8.0428215      191.10544      1.160191       192.26563      83.884372      153094.64      2379.2701      3.0110926    
        90   0.045          8.8401464      191.3347       0.94601351     192.28072      68.398869      153401.63      2379.2701      3.0110926    
       100   0.05           11.522328      191.42482      0.87216771     192.29699      63.059655      153504.25      2379.2701      3.0110926    
       110   0.055          12.317818      191.38593      0.93010261     192.31603      67.248476      153420.03      2379.2701      3.0110926    
       120   0.06           13.121132      191.24524      1.0944938      192.33974      79.134319      153191.22      2379.2701      3.0110926    
       130   0.065          13.924417      191.04163      1.3276342      192.36926      95.990886      152875.97      2379.2701      3.0110926    
       140   0.07           14.723627      190.81822      1.5858649      192.40408      114.66154      152538.34      2379.2701      3.0110926    
       150   0.075          15.524801      190.61502      1.8272349      192.44225      132.11312      152237.95      2379.2701      3.0110926    
       160   0.08           16.330187      190.4626       2.0187709      192.48137      145.9616       152020.74      2379.2701      3.0110926    
       170   0.085          17.133879      190.37824      2.1414233      192.51966      154.82964      151913.52      2379.2701      3.0110926    
       180   0.09           17.953295      190.36461      2.191663       192.55628      158.46208      151920.87      2379.2701      3.0110926    
       190   0.095          18.749662      190.41112      2.1800407      192.59116      157.62177      152026.73      2379.2701      3.0110926    
       200   0.1            19.55455       190.49704      2.1276836      192.62473      153.83623      152198.63      2379.2701      3.0110926    
       210   0.105          20.360215      190.5959       2.061678       192.65758      149.06388      152393.66      2379.2701      3.0110926    
       220   0.11           21.16377       190.68039      2.0100989      192.69049      145.3346       152567.73      2379.2701      3.0110926    
       230   0.115          21.960505      190.72704      1.9973349      192.72437      144.41173      152682.08      2379.2701      3.0110926    
       240   0.12           22.753129      190.72001      2.0402634      192.76027      147.51556      152710.26      2379.2701      3.0110926    
       250   0.125          23.547938      190.65359      2.1457111      192.7993       155.13966      152642.17      2379.2701      3.0110926    
       260   0.13           24.343982      190.53301      2.3094733      192.84248      166.98003      152485.76      2379.2701      3.0110926    
       270   0.135          25.137398      190.37353      2.5169864      192.89052      181.98369      152264.96      2379.2701      3.0110926    
       280   0.14           25.934402      190.19795      2.7455611      192.94352      198.51014      152016.13      2379.2701      3.0110926    
       290   0.145          26.72976       190.03301      2.9678727      193.00088      214.58376      151782.55      2379.2701      3.0110926    
       300   0.15           27.524408      189.90528      3.1561889      193.06147      228.19944      151606.93      2379.2701      3.0110926    
       310   0.155          28.316205      189.83707      3.2866572      193.12373      237.63259      151525.24      2379.2701      3.0110926    
       320   0.16           29.111057      189.84308      3.3429496      193.18603      241.70265      151560.78      2379.2701      3.0110926    
       330   0.165          29.905216      189.92831      3.3186986      193.24701      239.94925      151721.3       2379.2701      3.0110926    
       340   0.17           30.702655      190.08724      3.2184108      193.30565      232.69822      151996.89      2379.2701      3.0110926    
       350   0.175          31.504767      190.30462      3.0568193      193.36144      221.0148       152362.44      2379.2701      3.0110926    
       360   0.18           32.307861      190.55741      2.8568516      193.41426      206.55669      152780.62      2379.2701      3.0110926    
       370   0.185          33.111406      190.81784      2.6465025      193.46434      191.34798      153207.23      2379.2701      3.0110926    
       380   0.19           33.914606      191.05725      2.4549675      193.51222      177.49958      153597.03      2379.2701      3.0110926    
       390   0.195          34.718034      191.25018      2.3084817      193.55866      166.90834      153910.79      2379.2701      3.0110926    
       400   0.2            35.522398      191.37827      2.2264426      193.60471      160.97672      154121.02      2379.2701      3.0110926    
       410   0.205          36.327322      191.43308      2.2184863      193.65156      160.40147      154215.24      2379.2701      3.0110926    
       420   0.21           37.130926      191.41734      2.2831506      193.70049      165.07684      154197.81      2379.2701      3.0110926    
       430   0.215          37.935087      191.34401      2.4085062      193.75251      174.14033      154088.56      2379.2701      3.0110926    
       440   0.22           38.738579      191.23349      2.5747218      193.80821      186.15808      153918.55      2379.2701      3.0110926    
       450   0.225          39.542824      191.10955      2.75804        193.86759      199.41239      153724.57      2379.2701      3.0110926    
       460   0.23           40.348128      190.99484      2.9352687      193.93011      212.22642      153542.42      2379.2701      3.0110926    
       470   0.235          41.152533      190.90701      3.087774       193.99479      223.25289      153402.4       2379.2701      3.0110926    
       480   0.24           41.955684      190.85643      3.2041403      194.06057      231.66643      153323.62      2379.2701      3.0110926    
       490   0.245          42.760095      190.84538      3.2810595      194.12644      237.22786      153313.53      2379.2701      3.0110926    
       500   0.25           43.562337      190.86916      3.3224888      194.19165      240.22329      153367.4       2379.2701      3.0110926    
       510   0.255          44.365394      190.9183       3.3375217      194.25582      241.3102       153471.91      2379.2701      3.0110926    
       520   0.26           45.168754      190.98116      3.3376748      194.31884      241.32127      153607.96      2379.2701      3.0110926    
       530   0.265          45.970283      191.0465       3.3343363      194.38084      241.07989      153755.27      2379.2701      3.0110926    
       540   0.27           46.771929      191.1052       3.3369292      194.44213      241.26736      153895.02      2379.2701      3.0110926    
       550   0.275          47.566453      191.15114      3.3519389      194.50308      242.35259      154013.03      2379.2701      3.0110926    
       560   0.28           48.363678      191.18146      3.3825802      194.56404      244.56803      154100.93      2379.2701      3.0110926    
       570   0.285          49.165739      191.19653      3.4287506      194.62528      247.90625      154157.63      2379.2701      3.0110926    
       580   0.29           49.967385      191.1999       3.4870883      194.68699      252.1242       154189.07      2379.2701      3.0110926    
       590   0.295          50.76993       191.19797      3.5512068      194.74918      256.7601       154206.88      2379.2701      3.0110926    
       600   0.3            51.574775      191.19939      3.6123034      194.81169      261.17753      154226.38      2379.2701      3.0110926    
       610   0.305          52.381145      191.214        3.6602418      194.87424      264.64358      154264.49      2379.2701      3.0110926    
       620   0.31           53.185452      191.25138      3.6850369      194.93642      266.43632      154336.6       2379.2701      3.0110926    
       630   0.315          53.989267      191.31922      3.6785798      194.9978       265.96946      154454.04      2379.2701      3.0110926    
       640   0.32           54.79328       191.42156      3.636392       195.05796      262.91918      154622         2379.2701      3.0110926    
       650   0.325          55.595599      191.55757      3.5591003      195.11667      257.33082      154837.68      2379.2701      3.0110926    
       660   0.33           56.397144      191.7206       3.4531916      195.1738       249.67339      155090.33      2379.2701      3.0110926    
       670   0.335          57.2025        191.89881      3.3306262      195.22944      240.81164      155362.22      2379.2701      3.0110926    
       680   0.34           58.004478      192.07672      3.2071849      195.2839       231.88656      155631.52      2379.2701      3.0110926    
       690   0.345          58.806237      192.23773      3.099887       195.33761      224.12869      155875.3       2379.2701      3.0110926    
       700   0.35           59.60814       192.36704      3.0241625      195.3912       218.65364      156074.04      2379.2701      3.0110926    
       710   0.355          60.411494      192.45386      2.9914847      195.44535      216.29096      156213.59      2379.2701      3.0110926    
       720   0.36           61.213687      192.49289      3.0078874      195.50078      217.47691      156288.16      2379.2701      3.0110926    
       730   0.365          62.017826      192.4847       3.0734451      195.55815      222.21688      156300.04      2379.2701      3.0110926    
       740   0.37           62.819689      192.43535      3.1825861      195.61794      230.10802      156260.19      2379.2701      3.0110926    
       750   0.375          63.622508      192.35529      3.325078       195.68037      240.41049      156185.15      2379.2701      3.0110926    
       760   0.38           64.425811      192.25768      3.4875918      195.74527      252.1606       156095.73      2379.2701      3.0110926    
       770   0.385          65.228648      192.15641      3.6557638      195.81218      264.31981      156012.29      2379.2701      3.0110926    
       780   0.39           66.030388      192.06378      3.8165447      195.88032      275.94462      155951.14      2379.2701      3.0110926    
       790   0.395          66.834535      191.98837      3.9604581      195.94883      286.34988      155921.22      2379.2701      3.0110926    
       800   0.4            67.641366      191.93351      4.0832886      196.0168       295.2308       155922.46      2379.2701      3.0110926    
       810   0.405          68.444073      191.89674      4.1867488      196.08349      302.7112       155945.36      2379.2701      3.0110926    
       820   0.41           69.2465        191.87053      4.2778046      196.14834      309.29474      155973.7       2379.2701      3.0110926    
       830   0.415          70.048765      191.84447      4.3665811      196.21105      315.71347      155989.03      2379.2701      3.0110926    
       840   0.42           70.852222      191.80832      4.4631214      196.27145      322.69355      155974.83      2379.2701      3.0110926    
       850   0.425          71.65623       191.75569      4.5737121      196.3294       330.6895       155921.66      2379.2701      3.0110926    
       860   0.43           72.457794      191.68681      4.6978395      196.38465      339.66419      155830.15      2379.2701      3.0110926    
       870   0.435          73.260106      191.60997      4.8268046      196.43678      348.98865      155713.69      2379.2701      3.0110926    
       880   0.44           74.061611      191.54053      4.9445234      196.48506      357.49998      155595.87      2379.2701      3.0110926    
       890   0.445          74.863989      191.49828      5.0304057      196.52869      363.70946      155507.4       2379.2701      3.0110926    
       900   0.45           75.665719      191.50316      5.0637344      196.5669       366.11919      155479.76      2379.2701      3.0110926    
       910   0.455          76.470993      191.57046      5.0286872      196.59915      363.58521      155538.51      2379.2701      3.0110926    
       920   0.46           77.276794      191.70657      4.9189064      196.62548      355.64781      155697.36      2379.2701      3.0110926    
       930   0.465          78.080351      191.9061       4.7403654      196.64647      342.7389       155954.73      2379.2701      3.0110926    
       940   0.47           78.886346      192.15175      4.511504       196.66326      326.19172      156291.72      2379.2701      3.0110926    
       950   0.475          79.69164       192.4169       4.2603529      196.67725      308.03294      156673.89      2379.2701      3.0110926    
       960   0.48           80.499522      192.67055      4.0193338      196.68989      290.60673      157057.16      2379.2701      3.0110926    
       970   0.485          81.305542      192.88337      3.8190846      196.70245      276.12826      157396.37      2379.2701      3.0110926    
       980   0.49           82.111859      193.03315      3.6828412      196.71599      266.27757      157653.15      2379.2701      3.0110926    
       990   0.495          82.9189        193.10843      3.622784       196.73122      261.93529      157802.74      2379.2701      3.0110926    
      1000   0.5            83.725805      193.10952      3.6391614      196.74868      263.11942      157837.3       2379.2701      3.0110926    
      1010   0.505          84.533936      193.04676      3.7218875      196.76865      269.1007       157764.97      2379.2701      3.0110926    
      1020   0.51           85.342638      192.93782      3.8533623      196.79118      278.60662      157607.91      2379.2701      3.0110926    
      1030   0.515          86.147663      192.80469      4.0113081      196.816        290.02645      157398.78      2379.2701      3.0110926    
      1040   0.52           86.953091      192.67116      4.1713527      196.84251      301.59802      157176.7       2379.2701      3.0110926    
      1050   0.525          87.756789      192.55986      4.3100288      196.86989      311.62461      156980.21      2379.2701      3.0110926    
      1060   0.53           88.563508      192.4885       4.408665       196.89716      318.75623      156841.69      2379.2701      3.0110926    
      1070   0.535          89.343041      192.46626      4.4572647      196.92352      322.2701       156781.32      2379.2701      3.0110926    
      1080   0.54           90.120851      192.4919       4.4564722      196.94837      322.2128       156805.22      2379.2701      3.0110926    
      1090   0.545          90.92769       192.55516      4.4162944      196.97145      319.30785      156904.4       2379.2701      3.0110926    
      1100   0.55           91.735592      192.6407       4.3521469      196.99285      314.66985      157058.86      2379.2701      3.0110926    
      1110   0.555          92.538814      192.73223      4.2806249      197.01286      309.49865      157242.16      2379.2701      3.0110926    
      1120   0.56           93.331437      192.81463      4.2172723      197.0319       304.91812      157424.9       2379.2701      3.0110926    
      1130   0.565          94.121999      192.87393      4.1764364      197.05037      301.96559      157578.53      2379.2701      3.0110926    
      1140   0.57           94.91129       192.89724      4.1713729      197.06861      301.59948      157677.37      2379.2701      3.0110926    
      1150   0.575          95.700545      192.87394      4.2128831      197.08682      304.60077      157702.3       2379.2701      3.0110926    
      1160   0.58           96.492194      192.79873      4.3062889      197.10502      311.35421      157644.74      2379.2701      3.0110926    
      1170   0.585          97.284463      192.67478      4.4481231      197.1229       321.60914      157509.3       2379.2701      3.0110926    
      1180   0.59           98.077598      192.51528      4.6245555      197.13984      334.36559      157314.27      2379.2701      3.0110926    
      1190   0.595          98.869495      192.34202      4.812788       197.15481      347.97522      157089.84      2379.2701      3.0110926    
      1200   0.6            99.661998      192.18124      4.98524        197.16648      360.44388      156870.99      2379.2701      3.0110926    
      1210   0.605          100.45488      192.05812      5.1153666      197.17349      369.85232      156692.3       2379.2701      3.0110926    
      1220   0.61           101.25087      191.99112      5.1835901      197.17471      374.78503      156580.09      2379.2701      3.0110926    
      1230   0.615          102.04334      191.98765      5.1818598      197.16951      374.65993      156547.11      2379.2701      3.0110926    
      1240   0.62           102.8349       192.04232      5.1156059      197.15793      369.86962      156590.52      2379.2701      3.0110926    
      1250   0.625          103.62594      192.13831      5.0022945      197.14061      361.67696      156692.6       2379.2701      3.0110926    
      1260   0.63           104.41908      192.25189      4.8666578      197.11855      351.87012      156825.85      2379.2701      3.0110926    
      1270   0.635          105.21131      192.35885      4.7339859      197.09283      342.27765      156958.64      2379.2701      3.0110926    
      1280   0.64           106.00693      192.44045      4.6239174      197.06437      334.31946      157062.38      2379.2701      3.0110926    
      1290   0.645          106.80245      192.48678      4.5470004      197.03378      328.75818      157116.93      2379.2701      3.0110926    
      1300   0.65           107.59692      192.49657      4.5048018      197.00137      325.70714      157113.5       2379.2701      3.0110926    
      1310   0.655          108.39215      192.47478      4.4924696      196.96725      324.81549      157054.04      2379.2701      3.0110926    
      1320   0.66           109.18711      192.42967      4.5016945      196.93136      325.48247      156948.65      2379.2701      3.0110926    
      1330   0.665          109.98141      192.37106      4.5224963      196.89356      326.98648      156813.98      2379.2701      3.0110926    
      1340   0.67           110.77509      192.31011      4.5436393      196.85375      328.51517      156670.65      2379.2701      3.0110926    
      1350   0.675          111.56887      192.25925      4.5527027      196.81195      329.17047      156542.69      2379.2701      3.0110926    
      1360   0.68           112.36614      192.23135      4.5370081      196.76836      328.03572      156453.34      2379.2701      3.0110926    
      1370   0.685          113.17357      192.23764      4.4858166      196.72346      324.33446      156422.52      2379.2701      3.0110926    
      1380   0.69           113.98354      192.28486      4.3931976      196.67805      317.63791      156461.32      2379.2701      3.0110926    
      1390   0.695          114.79617      192.37281      4.2603687      196.63318      308.03408      156569.34      2379.2701      3.0110926    
      1400   0.7            115.60827      192.49367      4.0963461      196.59001      296.17488      156733.82      2379.2701      3.0110926    
      1410   0.705          116.41909      192.63304      3.9165284      196.54957      283.17367      156932.17      2379.2701      3.0110926    
      1420   0.71           117.22834      192.77278      3.7398854      196.51267      270.40199      157135.46      2379.2701      3.0110926    
      1430   0.715          118.03625      192.89379      3.5859467      196.47974      259.27188      157313.23      2379.2701      3.0110926    
      1440   0.72           118.84532      192.97847      3.4724285      196.4509       251.06426      157437.26      2379.2701      3.0110926    
      1450   0.725          119.65419      193.01247      3.4134696      196.42594      246.8014       157484.97      2379.2701      3.0110926    
      1460   0.73           120.46049      192.98648      3.4179781      196.40446      247.12738      157442.17      2379.2701      3.0110926    
      1470   0.735          121.26762      192.89801      3.4879349      196.38594      252.18541      157307.09      2379.2701      3.0110926    
      1480   0.74           122.07393      192.75263      3.617212       196.36984      261.53242      157090.22      2379.2701      3.0110926    
      1490   0.745          122.87913      192.56375      3.7917142      196.35546      274.14933      156813.59      2379.2701      3.0110926    
      1500   0.75           123.68754      192.35078      3.9912513      196.34203      288.5763       156506.79      2379.2701      3.0110926    
      1510   0.755          124.49734      192.13587      4.1928173      196.32869      303.14996      156202.06      2379.2701      3.0110926    
      1520   0.76           125.30311      191.94013      4.3743531      196.31449      316.27541      155929.76      2379.2701      3.0110926    
      1530   0.765          126.1122       191.78052      4.5179952      196.29852      326.66105      155712.68      2379.2701      3.0110926    
      1540   0.77           126.91863      191.66788      4.6121812      196.28006      333.4709       155565.2       2379.2701      3.0110926    
      1550   0.775          127.72468      191.60627      4.6524554      196.25872      336.38282      155491.01      2379.2701      3.0110926    
      1560   0.78           128.5336       191.59333      4.641123       196.23445      335.56346      155484.59      2379.2701      3.0110926    
      1570   0.785          129.34046      191.62153      4.5860454      196.20758      331.58123      155532.73      2379.2701      3.0110926    
      1580   0.79           130.14876      191.67976      4.4989267      196.17869      325.28236      155617.45      2379.2701      3.0110926    
      1590   0.795          130.95565      191.75513      4.3934163      196.14854      317.65372      155718.19      2379.2701      3.0110926    
      1600   0.8            131.7637       191.83465      4.2832131      196.11787      309.68578      155815.77      2379.2701      3.0110926    
      1610   0.805          132.57222      191.90708      4.1802356      196.08731      302.24028      155895.15      2379.2701      3.0110926    
      1620   0.81           133.379        191.96441      4.0929594      196.05737      295.93002      155947.61      2379.2701      3.0110926    
      1630   0.815          134.18414      192.00319      4.0251769      196.02837      291.02919      155972.14      2379.2701      3.0110926    
      1640   0.82           134.98921      192.0249       3.9755701      196.00047      287.44251      155974.76      2379.2701      3.0110926    
      1650   0.825          135.79293      192.03539      3.9384382      195.97383      284.7578       155966.66      2379.2701      3.0110926    
      1660   0.83           136.59803      192.04293      3.9056098      195.94854      282.38423      155960.49      2379.2701      3.0110926    
      1670   0.835          137.40219      192.05556      3.8691434      195.9247       279.74762      155966.9       2379.2701      3.0110926    
      1680   0.84           138.21028      192.07838      3.8241284      195.90251      276.49294      155991.37      2379.2701      3.0110926    
      1690   0.845          139.01702      192.11138      3.7708011      195.88218      272.63726      156031.05      2379.2701      3.0110926    
      1700   0.85           139.82057      192.14861      3.715284       195.86389      268.62325      156075.8       2379.2701      3.0110926    
      1710   0.855          140.6259       192.17921      3.6685964      195.8478       265.24763      156109.02      2379.2701      3.0110926    
      1720   0.86           141.42804      192.18988      3.6440991      195.83398      263.47642      156111.93      2379.2701      3.0110926    
      1730   0.865          142.23097      192.16836      3.6540435      195.8224       264.19543      156067.65      2379.2701      3.0110926    
      1740   0.87           143.03302      192.1067       3.7061597      195.81286      267.96355      155966.5       2379.2701      3.0110926    
      1750   0.875          143.83552      192.00398      3.8011137      195.80509      274.82893      155808.55      2379.2701      3.0110926    
      1760   0.88           144.64014      191.86731      3.9313353      195.79865      284.24424      155605.22      2379.2701      3.0110926    
      1770   0.885          145.44376      191.71155      4.0814127      195.79297      295.09516      155378.07      2379.2701      3.0110926    
      1780   0.89           146.24761      191.55734      4.2300279      195.78737      305.84037      155155.47      2379.2701      3.0110926    
      1790   0.895          147.05067      191.42793      4.3531982      195.78113      314.74586      154969.59      2379.2701      3.0110926    
      1800   0.9            147.85406      191.3453       4.4283475      195.77364      320.17932      154849.48      2379.2701      3.0110926    
      1810   0.905          148.65647      191.32604      4.4385108      195.76455      320.91415      154817.44      2379.2701      3.0110926    
      1820   0.91           149.46309      191.37809      4.3758198      195.75391      316.38145      154884.15      2379.2701      3.0110926    
      1830   0.915          150.2667       191.49886      4.2434195      195.74228      306.80862      155045.73      2379.2701      3.0110926    
      1840   0.92           151.07223      191.67529      4.0552287      195.73052      293.202        155284.87      2379.2701      3.0110926    
      1850   0.925          151.87797      191.88621      3.8335007      195.71971      277.17058      155572.75      2379.2701      3.0110926    
      1860   0.93           152.68388      192.10606      3.6047947      195.71086      260.63463      155874.2       2379.2701      3.0110926    
      1870   0.935          153.49023      192.30928      3.3954427      195.70472      245.49802      156153.55      2379.2701      3.0110926    
      1880   0.94           154.29499      192.47423      3.2276417      195.70187      233.36564      156379.24      2379.2701      3.0110926    
      1890   0.945          155.09936      192.58568      3.1169452      195.70263      225.36203      156528.64      2379.2701      3.0110926    
      1900   0.95           155.90685      192.63583      3.0713883      195.70722      222.06817      156589.58      2379.2701      3.0110926    
      1910   0.955          156.71382      192.62391      3.0919314      195.71585      223.55348      156560.26      2379.2701      3.0110926    
      1920   0.96           157.51963      192.55517      3.1735354      195.72871      229.45363      156449.12      2379.2701      3.0110926    
      1930   0.965          158.32821      192.43976      3.3061983      195.74595      239.04545      156273.58      2379.2701      3.0110926    
      1940   0.97           159.13392      192.29189      3.4757293      195.76761      251.30292      156057.56      2379.2701      3.0110926    
      1950   0.975          159.94027      192.12888      3.6646068      195.79348      264.95918      155829.19      2379.2701      3.0110926    
      1960   0.98           160.74591      191.96952      3.8535075      195.82303      278.61712      155617.36      2379.2701      3.0110926    
      1970   0.985          161.5512       191.83174      4.0237039      195.85544      290.92269      155448.46      2379.2701      3.0110926    
      1980   0.99           162.35651      191.72986      4.1598494      195.8897       300.76631      155342.05      2379.2701      3.0110926    
      1990   0.995          163.16162      191.67241      4.2523215      195.92473      307.45225      155309.08      2379.2701      3.0110926    
      2000   1              163.9644       191.66113      4.2984774      195.9596       310.78942      155349.98      2379.2701      3.0110926    
Loop time of 163.965 on 1 procs for 2000 steps with 108 atoms

Performance: 0.527 ns/day, 45.546 hours/ns, 12.198 timesteps/s, 1.317 katom-step/s
99.8% CPU use with 1 MPI tasks x 1 OpenMP threads

MPI task timing breakdown:
Section |  min time  |  avg time  |  max time  |%varavg| %total
---------------------------------------------------------------
Pair    | 163.91     | 163.91     | 163.91     |   0.0 | 99.97
Neigh   | 0          | 0          | 0          |   0.0 |  0.00
Comm    | 0.019839   | 0.019839   | 0.019839   |   0.0 |  0.01
Output  | 0.025571   | 0.025571   | 0.025571   |   0.0 |  0.02
Modify  | 0.0045266  | 0.0045266  | 0.0045266  |   0.0 |  0.00
Other   |            | 0.002632   |            |       |  0.00

Nlocal:            108 ave         108 max         108 min
Histogram: 1 0 0 0 0 0 0 0 0 0
Nghost:           3322 ave        3322 max        3322 min
Histogram: 1 0 0 0 0 0 0 0 0 0
Neighs:              0 ave           0 max           0 min
Histogram: 1 0 0 0 0 0 0 0 0 0
FullNghs:        57240 ave       57240 max       57240 min
Histogram: 1 0 0 0 0 0 0 0 0 0

Total # of neighbors = 57240
Ave neighs/atom = 530
Neighbor list builds = 0
Dangerous builds = 0
Generated 0 of 0 mixed pair_coeff terms from geometric mixing rule
Setting up Verlet run ...
  Unit style    : metal
  Current step  : 2000
  Time step     : 0.0005
Per MPI rank memory allocation (min/avg/max) = 3.136 | 3.136 | 3.136 Mbytes
   Step          Time           CPU           PotEng         KinEng         TotEng          Temp          Press          Volume        Density    
      2000   1              0              191.66113      4.2984774      195.95961      310.78942      155350         2379.2701      3.0110926    
      2010   1.005          0.80704385     191.69103      4.3026107      195.99364      311.08827      155454.8       2379.2701      3.0110926    
      2020   1.01           1.6134457      191.75175      4.274735       196.02649      309.0728       155605.25      2379.2701      3.0110926    
      2030   1.015          2.4186181      191.82959      4.2285047      196.05809      305.73024      155778.48      2379.2701      3.0110926    
      2040   1.02           3.2224416      191.90991      4.1787079      196.08862      302.12982      155949.53      2379.2701      3.0110926    
      2050   1.025          4.0282931      191.97947      4.1388617      196.11833      299.24886      156095.53      2379.2701      3.0110926    
      2060   1.03           4.8334544      192.0282       4.119361       196.14756      297.83891      156197.86      2379.2701      3.0110926    
      2070   1.035          5.6386619      192.05021      4.1263554      196.17656      298.34463      156246.15      2379.2701      3.0110926    
      2080   1.04           6.442781       192.04425      4.1612728      196.20552      300.86923      156238.22      2379.2701      3.0110926    
      2090   1.045          7.2475033      192.01356      4.2208689      196.23442      305.17816      156181.69      2379.2701      3.0110926    
      2100   1.05           8.0549878      191.96531      4.2978198      196.26313      310.74188      156091.49      2379.2701      3.0110926    
      2110   1.055          8.8617635      191.90942      4.3818901      196.29131      316.82034      155987.39      2379.2701      3.0110926    
      2120   1.06           9.6688172      191.85704      4.4614859      196.31852      322.5753       155891.13      2379.2701      3.0110926    
      2130   1.065          10.474423      191.8191       4.5251614      196.34426      327.17918      155822.91      2379.2701      3.0110926    
      2140   1.07           11.277773      191.80532      4.5627338      196.36805      329.89575      155799.63      2379.2701      3.0110926    
      2150   1.075          12.083588      191.82344      4.5660904      196.38953      330.13844      155833.2       2379.2701      3.0110926    
      2160   1.08           12.888521      191.87844      4.5301388      196.40857      327.53906      155927.51      2379.2701      3.0110926    
      2170   1.085          13.694708      191.97103      4.4542319      196.42526      322.05082      156078.5       2379.2701      3.0110926    
      2180   1.09           14.5012        192.09621      4.3437777      196.43999      314.06474      156272.29      2379.2701      3.0110926    
      2190   1.095          15.308774      192.2422       4.2111131      196.45331      304.47279      156486.84      2379.2701      3.0110926    
      2200   1.1            16.112329      192.39127      4.0746512      196.46592      294.6063       156693.8       2379.2701      3.0110926    
      2210   1.105          16.918936      192.5226       3.9559205      196.47852      286.0218       156863.47      2379.2701      3.0110926    
      2220   1.11           17.726898      192.6167       3.8750514      196.49175      280.17479      156970.58      2379.2701      3.0110926    
      2230   1.115          18.534477      192.66008      3.8460289      196.50611      278.07639      156999.82      2379.2701      3.0110926    
      2240   1.12           19.344116      192.64872      3.8732176      196.52194      280.0422       156950.36      2379.2701      3.0110926    
      2250   1.125          20.151066      192.58919      3.9501949      196.53938      285.60783      156836.06      2379.2701      3.0110926    
      2260   1.13           20.957594      192.49714      4.0611774      196.55831      293.63211      156682.33      2379.2701      3.0110926    
      2270   1.135          21.76469       192.39376      4.1846195      196.57838      302.55725      156521.41      2379.2701      3.0110926    
      2280   1.14           22.571312      192.30101      4.2979765      196.59899      310.75321      156386.27      2379.2701      3.0110926    
      2290   1.145          23.376427      192.2372       4.3822672      196.61947      316.84761      156304.75      2379.2701      3.0110926    
      2300   1.15           24.1802        192.21395      4.42524        196.63919      319.95464      156295.17      2379.2701      3.0110926    
      2310   1.155          24.982996      192.23504      4.4226364      196.65768      319.7664       156364.01      2379.2701      3.0110926    
      2320   1.16           25.787838      192.29693      4.3778532      196.67478      316.52847      156504.65      2379.2701      3.0110926    
      2330   1.165          26.591484      192.38991      4.3006932      196.6906       310.94963      156699.33      2379.2701      3.0110926    
      2340   1.17           27.396181      192.49974      4.2057263      196.70547      304.08332      156922.03      2379.2701      3.0110926    
      2350   1.175          28.202658      192.60945      4.1104096      196.71986      297.1917       157143.03      2379.2701      3.0110926    
      2360   1.18           29.010419      192.70134      4.0329397      196.73428      291.59046      157332.31      2379.2701      3.0110926    
      2370   1.185          29.816281      192.75932      3.9898569      196.74918      288.47548      157463.86      2379.2701      3.0110926    
      2380   1.19           30.623234      192.77145      3.993486       196.76493      288.73787      157518.96      2379.2701      3.0110926    
      2390   1.195          31.432422      192.73233      4.04942        196.78175      292.78202      157489.45      2379.2701      3.0110926    
      2400   1.2            32.239814      192.64503      4.1545515      196.79958      300.38326      157380.89      2379.2701      3.0110926    
      2410   1.205          33.044481      192.5217       4.2964434      196.81814      310.64236      157211.07      2379.2701      3.0110926    
      2420   1.21           33.852682      192.38204      4.4547869      196.83683      322.09095      157008.53      2379.2701      3.0110926    
      2430   1.215          34.66012       192.2497       4.6050658      196.85477      332.95644      156807.87      2379.2701      3.0110926    
      2440   1.22           35.466552      192.14737      4.7235815      196.87095      341.52539      156642.91      2379.2701      3.0110926    
      2450   1.225          36.273112      192.09207      4.7923264      196.8844       346.4958       156541.76      2379.2701      3.0110926    
      2460   1.23           37.07959       192.09221      4.8022468      196.89446      347.21307      156521.07      2379.2701      3.0110926    
      2470   1.235          37.888001      192.14677      4.7541274      196.9009       343.73392      156583.93      2379.2701      3.0110926    
      2480   1.24           38.697687      192.24669      4.6572269      196.90392      336.72781      156720.77      2379.2701      3.0110926    
      2490   1.245          39.508902      192.37757      4.5265378      196.90411      327.2787       156912.02      2379.2701      3.0110926    
      2500   1.25           40.318271      192.52237      4.3798638      196.90223      316.67384      157132.23      2379.2701      3.0110926    
      2510   1.255          41.126265      192.66347      4.2357055      196.89917      306.25087      157352.29      2379.2701      3.0110926    
      2520   1.26           41.938686      192.78358      4.1120997      196.89568      297.31391      157542.58      2379.2701      3.0110926    
      2530   1.265          42.748792      192.86679      4.0255613      196.89235      291.05699      157675.15      2379.2701      3.0110926    
      2540   1.27           43.557178      192.90048      3.9890757      196.88956      288.41899      157728.73      2379.2701      3.0110926    
      2550   1.275          44.366926      192.87834      4.0091133      196.88745      289.86776      157692.35      2379.2701      3.0110926    
      2560   1.28           45.17778       192.80286      4.0830488      196.88591      295.21346      157568.44      2379.2701      3.0110926    
      2570   1.285          45.988332      192.68571      4.1988926      196.8846       303.58922      157372.38      2379.2701      3.0110926    
      2580   1.29           46.796752      192.54477      4.338162       196.88293      313.6587       157130.26      2379.2701      3.0110926    
      2590   1.295          47.606955      192.39939      4.4807255      196.88011      323.96637      156872.09      2379.2701      3.0110926    
      2600   1.3            48.415618      192.266        4.6092778      196.87528      333.26098      156626.43      2379.2701      3.0110926    
      2610   1.305          49.226559      192.15582      4.7116808      196.8675       340.66494      156415.81      2379.2701      3.0110926    
      2620   1.31           50.032933      192.07505      4.780943       196.85599      345.67276      156255.68      2379.2701      3.0110926    
      2630   1.315          50.839283      192.02638      4.8137929      196.84017      348.04787      156154.87      2379.2701      3.0110926    
      2640   1.32           51.645436      192.01059      4.8091296      196.81972      347.7107       156116.2       2379.2701      3.0110926    
      2650   1.325          52.453424      192.02738      4.7672567      196.79463      344.6832       156138.16      2379.2701      3.0110926    
      2660   1.33           53.258468      192.07514      4.690109       196.76525      339.10526      156214.93      2379.2701      3.0110926    
      2670   1.335          54.066647      192.15014      4.5820617      196.7322       331.2932       156336.53      2379.2701      3.0110926    
      2680   1.34           54.876332      192.24588      4.4505256      196.6964       321.78285      156489.88      2379.2701      3.0110926    
      2690   1.345          55.684375      192.3533       4.3055928      196.6589       311.30388      156658.98      2379.2701      3.0110926    
      2700   1.35           56.49504       192.46216      4.1585697      196.62073      300.67379      156828.47      2379.2701      3.0110926    
      2710   1.355          57.305561      192.5628       4.0200252      196.58282      290.65671      156983.9       2379.2701      3.0110926    
      2720   1.36           58.116116      192.64756      3.8984042      196.54596      281.86325      157113.09      2379.2701      3.0110926    
      2730   1.365          58.927553      192.7108       3.7998997      196.5107       274.74116      157206.28      2379.2701      3.0110926    
      2740   1.37           59.738196      192.74799      3.729381       196.47737      269.64249      157255.11      2379.2701      3.0110926    
      2750   1.375          60.548124      192.75469      3.6914447      196.44614      266.89962      157252.48      2379.2701      3.0110926    
      2760   1.38           61.357305      192.72629      3.6906298      196.41692      266.8407       157192.02      2379.2701      3.0110926    
      2770   1.385          62.169609      192.65909      3.7304445      196.38953      269.71939      157070.08      2379.2701      3.0110926    
      2780   1.39           62.98115       192.55195      3.8116011      196.36355      275.58719      156887.68      2379.2701      3.0110926    
      2790   1.395          63.789437      192.40822      3.9302382      196.33846      284.16492      156653.13      2379.2701      3.0110926    
      2800   1.4            64.598514      192.23669      4.0768777      196.31357      294.76727      156381.86      2379.2701      3.0110926    
      2810   1.405          65.408671      192.0515       4.2366426      196.28814      306.31863      156096.19      2379.2701      3.0110926    
      2820   1.41           66.217466      191.87042      4.3909325      196.26136      317.47413      155822.5       2379.2701      3.0110926    
      2830   1.415          67.024307      191.71221      4.5202862      196.23249      326.82669      155586.94      2379.2701      3.0110926    
      2840   1.42           67.82985       191.5933       4.6077273      196.20103      333.14887      155411.69      2379.2701      3.0110926    
      2850   1.425          68.636185      191.52508      4.6417381      196.16682      335.60793      155311.33      2379.2701      3.0110926    
      2860   1.43           69.442483      191.51194      4.6181867      196.13013      333.90511      155291.43      2379.2701      3.0110926    
      2870   1.435          70.250329      191.5508       4.5408812      196.09168      328.31575      155347.46      2379.2701      3.0110926    
      2880   1.44           71.056842      191.63178      4.4207377      196.05252      319.62911      155465.4       2379.2701      3.0110926    
      2890   1.445          71.866217      191.74006      4.2737531      196.01381      309.00181      155623.74      2379.2701      3.0110926    
      2900   1.45           72.669927      191.85851      4.1181778      195.97669      297.75336      155796.74      2379.2701      3.0110926    
      2910   1.455          73.472399      191.97052      3.9714872      195.94201      287.14731      155959.22      2379.2701      3.0110926    
      2920   1.46           74.278074      192.06258      3.8477698      195.91035      278.20226      156090.15      2379.2701      3.0110926    
      2930   1.465          75.083005      192.12603      3.7559468      195.88198      271.56326      156176.11      2379.2701      3.0110926    
      2940   1.47           75.888346      192.15798      3.6989562      195.85694      267.44271      156212.22      2379.2701      3.0110926    
      2950   1.475          76.694477      192.16124      3.6738735      195.83512      265.62918      156202.34      2379.2701      3.0110926    
      2960   1.48           77.500405      192.14344      3.6729024      195.81634      265.55897      156157.84      2379.2701      3.0110926    
      2970   1.485          78.308502      192.11528      3.6851324      195.80041      266.44322      156094.66      2379.2701      3.0110926    
      2980   1.49           79.115372      192.08835      3.6988092      195.78716      267.43209      156031.03      2379.2701      3.0110926    
      2990   1.495          79.923196      192.07278      3.7036444      195.77642      267.78168      155983.41      2379.2701      3.0110926    
      3000   1.5            80.73011       192.0755       3.6926345      195.76813      266.98564      155964.65      2379.2701      3.0110926    
      3010   1.505          81.537746      192.09916      3.6630752      195.76224      264.84844      155980.76      2379.2701      3.0110926    
      3020   1.51           82.339567      192.142        3.6167628      195.75876      261.49995      156030.68      2379.2701      3.0110926    
      3030   1.515          83.143189      192.1982       3.5595507      195.75775      257.36339      156107.05      2379.2701      3.0110926    
      3040   1.52           83.9443        192.25882      3.5004216      195.75924      253.08822      156197.54      2379.2701      3.0110926    
      3050   1.525          84.746423      192.31317      3.4501351      195.7633       249.4524       156286.49      2379.2701      3.0110926    
      3060   1.53           85.546402      192.35045      3.4195449      195.76999      247.24066      156357.29      2379.2701      3.0110926    
      3070   1.535          86.350646      192.36144      3.4178491      195.77929      247.11805      156393.88      2379.2701      3.0110926    
      3080   1.54           87.152539      192.33998      3.4511916      195.79117      249.52879      156383.72      2379.2701      3.0110926    
      3090   1.545          87.957248      192.28366      3.5219371      195.8056       254.64385      156318.4       2379.2701      3.0110926    
      3100   1.55           88.758587      192.19376      3.6286234      195.82238      262.3575       156195.7       2379.2701      3.0110926    
      3110   1.555          89.560227      192.0749       3.7663089      195.84121      272.31247      156020.81      2379.2701      3.0110926    
      3120   1.56           90.361019      191.93465      3.9269838      195.86163      283.92961      155804.38      2379.2701      3.0110926    
      3130   1.565          91.16076       191.78307      4.0998756      195.88295      296.43007      155563.23      2379.2701      3.0110926    
      3140   1.57           91.960188      191.63261      4.2717132      195.90432      308.85432      155318.73      2379.2701      3.0110926    
      3150   1.575          92.757599      191.49759      4.4271626      195.92475      320.09365      155096.59      2379.2701      3.0110926    
      3160   1.58           93.550393      191.39356      4.5496967      195.94326      328.95314      154924.01      2379.2701      3.0110926    
      3170   1.585          94.314445      191.33586      4.6231508      195.95901      334.26403      154827.25      2379.2701      3.0110926    
      3180   1.59           95.067267      191.33735      4.6341145      195.97147      335.05673      154826.11      2379.2701      3.0110926    
      3190   1.595          95.819182      191.40562      4.5749806      195.9806       330.78122      154930.47      2379.2701      3.0110926    
      3200   1.6            96.572713      191.53988      4.4469336      195.98682      321.52314      155137.14      2379.2701      3.0110926    
      3210   1.605          97.329682      191.72918      4.2618112      195.99099      308.13838      155428.79      2379.2701      3.0110926    
      3220   1.61           98.085902      191.95229      4.0419284      195.99422      292.24036      155773.58      2379.2701      3.0110926    
      3230   1.615          98.842874      192.18011      3.8174778      195.99759      276.01209      156129.12      2379.2701      3.0110926    
      3240   1.62           99.599779      192.3803       3.6217475      196.00204      261.86036      156449.15      2379.2701      3.0110926    
      3250   1.625          100.35805      192.52318      3.4850259      196.00821      251.97508      156691.08      2379.2701      3.0110926    
      3260   1.63           101.11626      192.58792      3.4286036      196.01653      247.89562      156823.91      2379.2701      3.0110926    
      3270   1.635          101.87117      192.56663      3.4605734      196.0272       250.20711      156834.08      2379.2701      3.0110926    
      3280   1.64           102.62757      192.4655       3.5747761      196.04028      258.46422      156726.32      2379.2701      3.0110926    
      3290   1.645          103.38629      192.3025       3.7530192      196.05552      271.35159      156521.99      2379.2701      3.0110926    
      3300   1.65           104.14336      192.10313      3.9693001      196.07243      286.98918      156254.99      2379.2701      3.0110926    
      3310   1.655          104.90027      191.89574      4.1943289      196.09007      303.25926      155965.64      2379.2701      3.0110926    
      3320   1.66           105.6594       191.70798      4.3993202      196.1073       318.08058      155695.13      2379.2701      3.0110926    
      3330   1.665          106.41658      191.56389      4.5589694      196.12286      329.62357      155479.84      2379.2701      3.0110926    
      3340   1.67           107.17328      191.4817       4.6540043      196.1357       336.4948       155347.29      2379.2701      3.0110926    
      3350   1.675          107.93393      191.47169      4.6735023      196.1452       337.90456      155313.64      2379.2701      3.0110926    
      3360   1.68           108.691        191.53462      4.6166476      196.15127      333.79383      155380.6       2379.2701      3.0110926    
      3370   1.685          109.44984      191.66117      4.4932421      196.15441      324.87134      155535.82      2379.2701      3.0110926    
      3380   1.69           110.20811      191.83321      4.3223177      196.15553      312.51313      155755.36      2379.2701      3.0110926    
      3390   1.695          110.96839      192.02697      4.1287195      196.15569      298.51555      156008.24      2379.2701      3.0110926    
      3400   1.7            111.7267       192.21751      3.9384164      196.15593      284.75622      156261.19      2379.2701      3.0110926    
      3410   1.705          112.49846      192.3831       3.773994       196.1571       272.86811      156484.63      2379.2701      3.0110926    
      3420   1.71           113.29016      192.50806      3.6517108      196.15977      264.02677      156655.71      2379.2701      3.0110926    
      3430   1.715          114.08134      192.58367      3.580643       196.16432      258.88841      156759.98      2379.2701      3.0110926    
      3440   1.72           114.87445      192.60756      3.5633874      196.17094      257.64079      156792.08      2379.2701      3.0110926    
      3450   1.725          115.66814      192.58239      3.5973001      196.17969      260.09275      156754.02      2379.2701      3.0110926    
      3460   1.73           116.46357      192.51499      3.6754842      196.19048      265.74564      156655.58      2379.2701      3.0110926    
      3470   1.735          117.25969      192.41572      3.787355       196.20307      273.83414      156511.65      2379.2701      3.0110926    
      3480   1.74           118.05411      192.29795      3.9191526      196.2171       283.3634       156342.9       2379.2701      3.0110926    
      3490   1.745          118.84722      192.17711      4.054889       196.232        293.17744      156172.41      2379.2701      3.0110926    
      3500   1.75           119.63949      192.06925      4.1778858      196.24713      302.07038      156024.1       2379.2701      3.0110926    
      3510   1.755          120.43333      191.98918      4.2726543      196.26183      308.92236      155919.65      2379.2701      3.0110926    
      3520   1.76           121.22431      191.94873      4.3267747      196.27551      312.83538      155875.23      2379.2701      3.0110926    
      3530   1.765          122.01899      191.95516      4.3326158      196.28777      313.25771      155900.63      2379.2701      3.0110926    
      3540   1.77           122.81152      192.00963      4.2889219      196.29855      310.09854      155995.59      2379.2701      3.0110926    
      3550   1.775          123.60501      192.10591      4.2021415      196.30805      303.82412      156149.11      2379.2701      3.0110926    
      3560   1.78           124.40026      192.22976      4.0869424      196.3167       295.49497      156339.37      2379.2701      3.0110926    
      3570   1.785          125.1972       192.35999      3.9650594      196.32505      286.68257      156536.88      2379.2701      3.0110926    
      3580   1.79           125.99425      192.47176      3.8619521      196.33371      279.22768      156707.33      2379.2701      3.0110926    
      3590   1.795          126.78934      192.54141      3.8017254      196.34314      274.87316      156819.66      2379.2701      3.0110926    
      3600   1.8            127.58549      192.5519       3.801791       196.35369      274.8779       156850.97      2379.2701      3.0110926    
      3610   1.805          128.38097      192.49646      3.8690437      196.36551      279.74042      156792         2379.2701      3.0110926    
      3620   1.81           129.1763       192.37984      3.9986298      196.37847      289.10978      156648.89      2379.2701      3.0110926    
      3630   1.815          129.96986      192.21694      4.1752574      196.3922       301.88034      156442.05      2379.2701      3.0110926    
      3640   1.82           130.77076      192.02973      4.3762093      196.40594      316.40961      156201.7       2379.2701      3.0110926    
      3650   1.825          131.58062      191.84358      4.5750736      196.41865      330.78794      155963.36      2379.2701      3.0110926    
      3660   1.83           132.38456      191.68359      4.7455547      196.42914      343.1141       155760.97      2379.2701      3.0110926    
      3670   1.835          133.18768      191.57113      4.8650939      196.43623      351.75705      155623         2379.2701      3.0110926    
      3680   1.84           133.99099      191.52105      4.918074       196.43913      355.58763      155568.82      2379.2701      3.0110926    
      3690   1.845          134.79537      191.53927      4.8982344      196.4375       354.15318      155605.66      2379.2701      3.0110926    
      3700   1.85           135.60022      191.62181      4.8098515      196.43166      347.7629       155726.89      2379.2701      3.0110926    
      3710   1.855          136.40274      191.75508      4.6673367      196.42241      337.45877      155913.02      2379.2701      3.0110926    
      3720   1.86           137.20867      191.91786      4.49302        196.41088      324.85528      156135.17      2379.2701      3.0110926    
      3730   1.865          138.01341      192.08508      4.3131794      196.39826      311.85241      156359.79      2379.2701      3.0110926    
      3740   1.87           138.81878      192.23268      4.1528797      196.38556      300.26239      156555.21      2379.2701      3.0110926    
      3750   1.875          139.62211      192.34274      4.030775       196.37352      291.43395      156697.23      2379.2701      3.0110926    
      3760   1.88           140.42699      192.40721      3.95533        196.36254      285.97911      156774.49      2379.2701      3.0110926    
      3770   1.885          141.22945      192.4292       3.9236338      196.35283      283.6874       156790.01      2379.2701      3.0110926    
      3780   1.89           142.03435      192.42123      3.9231502      196.34438      283.65244      156759.74      2379.2701      3.0110926    
      3790   1.895          142.8367       192.40129      3.9358264      196.33712      284.56896      156707.08      2379.2701      3.0110926    
      3800   1.9            143.63872      192.38765      3.9433226      196.33098      285.11094      156657.3       2379.2701      3.0110926    
      3810   1.905          144.44276      192.39399      3.9319112      196.3259       284.28588      156631.37      2379.2701      3.0110926    
      3820   1.91           145.24539      192.42613      3.8958321      196.32197      281.67728      156640.58      2379.2701      3.0110926    
      3830   1.915          146.04762      192.48089      3.8384277      196.31932      277.52681      156685.17      2379.2701      3.0110926    
      3840   1.92           146.85164      192.54718      3.7709799      196.31816      272.65019      156754.2       2379.2701      3.0110926    
      3850   1.925          147.65622      192.60906      3.7096787      196.31874      268.21798      156829.12      2379.2701      3.0110926    
      3860   1.93           148.46081      192.6497       3.6715324      196.32124      265.45991      156888.35      2379.2701      3.0110926    
      3870   1.935          149.26533      192.65556      3.6702359      196.32579      265.36618      156912.16      2379.2701      3.0110926    
      3880   1.94           150.06904      192.61947      3.7130086      196.33248      268.45873      156887.36      2379.2701      3.0110926    
      3890   1.945          150.8753       192.54212      3.7990885      196.34121      274.6825       156810.06      2379.2701      3.0110926    
      3900   1.95           151.68029      192.43176      3.9200549      196.35182      283.42864      156685.59      2379.2701      3.0110926    
      3910   1.955          152.48653      192.30222      4.0616984      196.36392      293.66978      156527.41      2379.2701      3.0110926    
      3920   1.96           153.29363      192.17001      4.2069242      196.37694      304.16993      156354.3       2379.2701      3.0110926    
      3930   1.965          154.0954       192.05111      4.3391037      196.39022      313.7268       156186.22      2379.2701      3.0110926    
      3940   1.97           154.89792      191.95779      4.445223       196.40301      321.39946      156040.82      2379.2701      3.0110926    
      3950   1.975          155.70267      191.89654      4.5181087      196.41465      326.66925      155929.98      2379.2701      3.0110926    
      3960   1.98           156.50649      191.86749      4.5571144      196.4246       329.48945      155858.69      2379.2701      3.0110926    
      3970   1.985          157.31082      191.8655       4.5670476      196.43255      330.20764      155825.79      2379.2701      3.0110926    
      3980   1.99           158.11666      191.88269      4.5556878      196.43838      329.38631      155826.3       2379.2701      3.0110926    
      3990   1.995          158.91956      191.91137      4.5307405      196.44211      327.58256      155854.44      2379.2701      3.0110926    
      4000   2              159.72329      191.94655      4.4972845      196.44383      325.16362      155905.86      2379.2701      3.0110926    
Loop time of 159.723 on 1 procs for 2000 steps with 108 atoms

Performance: 0.541 ns/day, 44.368 hours/ns, 12.522 timesteps/s, 1.352 katom-step/s
100.0% CPU use with 1 MPI tasks x 1 OpenMP threads

MPI task timing breakdown:
Section |  min time  |  avg time  |  max time  |%varavg| %total
---------------------------------------------------------------
Pair    | 159.67     | 159.67     | 159.67     |   0.0 | 99.97
Neigh   | 0          | 0          | 0          |   0.0 |  0.00
Comm    | 0.021098   | 0.021098   | 0.021098   |   0.0 |  0.01
Output  | 0.025794   | 0.025794   | 0.025794   |   0.0 |  0.02
Modify  | 0.0046169  | 0.0046169  | 0.0046169  |   0.0 |  0.00
Other   |            | 0.002642   |            |       |  0.00

Nlocal:            108 ave         108 max         108 min
Histogram: 1 0 0 0 0 0 0 0 0 0
Nghost:           3322 ave        3322 max        3322 min
Histogram: 1 0 0 0 0 0 0 0 0 0
Neighs:              0 ave           0 max           0 min
Histogram: 1 0 0 0 0 0 0 0 0 0
FullNghs:        57872 ave       57872 max       57872 min
Histogram: 1 0 0 0 0 0 0 0 0 0

Total # of neighbors = 57872
Ave neighs/atom = 535.85185
Neighbor list builds = 0
Dangerous builds = 0
Generated 0 of 0 mixed pair_coeff terms from geometric mixing rule
Setting up Verlet run ...
  Unit style    : metal
  Current step  : 4000
  Time step     : 0.0005
Per MPI rank memory allocation (min/avg/max) = 3.136 | 3.136 | 3.136 Mbytes
   Step          Time           CPU           PotEng         KinEng         TotEng          Temp          Press          Volume        Density    
      4000   2              0              191.94655      4.4972845      196.44383      325.16362      155905.86      2379.2701      3.0110926    
      4010   2.005          0.80383344     191.98711      4.4565817      196.44369      322.22071      155978.78      2379.2701      3.0110926    
      4020   2.01           1.6078901      192.03524      4.4066119      196.44186      318.60779      156073.36      2379.2701      3.0110926    
      4030   2.015          2.4126333      192.09449      4.3440563      196.43855      314.08488      156189.73      2379.2701      3.0110926    
      4040   2.02           3.2173666      192.16711      4.266936       196.43404      308.50891      156326.37      2379.2701      3.0110926    
      4050   2.025          4.0212362      192.25173      4.1769249      196.42865      302.00091      156476.73      2379.2701      3.0110926    
      4060   2.03           4.8264534      192.34227      4.0804867      196.42276      295.02822      156629.34      2379.2701      3.0110926    
      4070   2.035          5.6328282      192.42839      3.9883758      196.41676      288.36839      156768.51      2379.2701      3.0110926    
      4080   2.04           6.4374786      192.49738      3.9136568      196.41103      282.96604      156877.31      2379.2701      3.0110926    
      4090   2.045          7.2437694      192.53686      3.8689589      196.40582      279.73429      156940.07      2379.2701      3.0110926    
      4100   2.05           8.0471741      192.53755      3.8637457      196.4013       279.35736      156945.58      2379.2701      3.0110926    
      4110   2.055          8.853748       192.49544      3.9020523      196.3975       282.12701      156889.36      2379.2701      3.0110926    
      4120   2.06           9.6593639      192.41333      3.9809361      196.39426      287.83049      156775.66      2379.2701      3.0110926    
      4130   2.065          10.463206      192.30134      4.0899522      196.3913       295.71259      156617.31      2379.2701      3.0110926    
      4140   2.07           11.268448      192.17579      4.2122616      196.38805      304.55583      156434.29      2379.2701      3.0110926    
      4150   2.075          12.071227      192.056        4.3278272      196.38382      312.91148      156250.94      2379.2701      3.0110926    
      4160   2.08           12.877876      191.95974      4.4180753      196.37782      319.43662      156089.91      2379.2701      3.0110926    
      4170   2.085          13.684746      191.89904      4.4702472      196.36929      323.20876      155969.19      2379.2701      3.0110926    
      4180   2.09           14.488596      191.87798      4.4796879      196.35767      323.89134      155897.95      2379.2701      3.0110926    
      4190   2.095          15.292365      191.89323      4.4494787      196.34271      321.70715      155876.61      2379.2701      3.0110926    
      4200   2.1            16.096971      191.93647      4.388052       196.32452      317.26586      155897.98      2379.2701      3.0110926    
      4210   2.105          16.903501      191.99743      4.306021       196.30346      311.33484      155951.01      2379.2701      3.0110926    
      4220   2.11           17.708846      192.06671      4.2133692      196.28008      304.63591      156024         2379.2701      3.0110926    
      4230   2.115          18.512385      192.13736      4.1176954      196.25506      297.71849      156106.57      2379.2701      3.0110926    
      4240   2.12           19.318809      192.2053       4.0237698      196.22907      290.92746      156190.92      2379.2701      3.0110926    
      4250   2.125          20.122823      192.26849      3.9342754      196.20277      284.45681      156271.88      2379.2701      3.0110926    
      4260   2.13           20.927644      192.32554      3.8512245      196.17676      278.45205      156345.15      2379.2701      3.0110926    
      4270   2.135          21.731995      192.37429      3.7772985      196.15159      273.10703      156406.96      2379.2701      3.0110926    
      4280   2.14           22.535769      192.41123      3.7164341      196.12766      268.7064       156452.3       2379.2701      3.0110926    
      4290   2.145          23.343788      192.43189      3.6733905      196.10528      265.59425      156475.76      2379.2701      3.0110926    
      4300   2.15           24.148856      192.43206      3.6525773      196.08464      264.08942      156472         2379.2701      3.0110926    
      4310   2.155          24.954401      192.409        3.6567552      196.06576      264.39149      156436.89      2379.2701      3.0110926    
      4320   2.16           25.758724      192.36241      3.6861759      196.04858      266.51867      156369.04      2379.2701      3.0110926    
      4330   2.165          26.565545      192.29463      3.7383494      196.03298      270.29093      156270.89      2379.2701      3.0110926    
      4340   2.17           27.369276      192.21045      3.8082585      196.01871      275.34552      156149.27      2379.2701      3.0110926    
      4350   2.175          28.172925      192.11676      3.8887333      196.0055       281.16402      156014.49      2379.2701      3.0110926    
      4360   2.18           28.974077      192.02212      3.9709035      195.99302      287.10511      155879.19      2379.2701      3.0110926    
      4370   2.185          29.777959      191.93605      4.0449143      195.98096      292.45625      155757.79      2379.2701      3.0110926    
      4380   2.19           30.58197       191.8679       4.1011276      195.96903      296.52059      155663.46      2379.2701      3.0110926    
      4390   2.195          31.385004      191.82525      4.1317857      195.95704      298.73724      155606.68      2379.2701      3.0110926    
      4400   2.2            32.188055      191.81214      4.1327654      195.94491      298.80808      155592         2379.2701      3.0110926    
      4410   2.205          32.989045      191.82791      4.10481        195.93272      296.78684      155617.8       2379.2701      3.0110926    
      4420   2.21           33.79049       191.86704      4.05366        195.9207       293.08859      155675.47      2379.2701      3.0110926    
      4430   2.215          34.59487       191.92024      3.988877       195.90912      288.40463      155751.67      2379.2701      3.0110926    
      4440   2.22           35.401885      191.97659      3.9217296      195.89832      283.54973      155831.69      2379.2701      3.0110926    
      4450   2.225          36.208665      192.02565      3.8629268      195.88858      279.29815      155901.18      2379.2701      3.0110926    
      4460   2.23           37.013396      192.05918      3.8209578      195.88014      276.2637       155948.48      2379.2701      3.0110926    
      4470   2.235          37.81962       192.0718       3.8013328      195.87313      274.84477      155966.61      2379.2701      3.0110926    
      4480   2.24           38.620678      192.06113      3.8064731      195.8676       275.21643      155952.2       2379.2701      3.0110926    
      4490   2.245          39.423953      192.02773      3.8358071      195.86354      277.33734      155906.28      2379.2701      3.0110926    
      4500   2.25           40.224914      191.97495      3.8858558      195.86081      280.95597      155833.5       2379.2701      3.0110926    
      4510   2.255          41.0262        191.90877      3.9504639      195.85923      285.62728      155740.74      2379.2701      3.0110926    
      4520   2.26           41.829294      191.83705      4.0215045      195.85855      290.76367      155638.04      2379.2701      3.0110926    
      4530   2.265          42.632159      191.7682       4.0902846      195.85848      295.73662      155535.3       2379.2701      3.0110926    
      4540   2.27           43.435099      191.70918      4.1495274      195.85871      300.02001      155440.98      2379.2701      3.0110926    
      4550   2.275          44.239686      191.66378      4.195181       195.85896      303.32087      155359.82      2379.2701      3.0110926    
      4560   2.28           45.042518      191.63207      4.2269134      195.85899      305.61519      155293.61      2379.2701      3.0110926    
      4570   2.285          45.844718      191.61195      4.2466718      195.85862      307.04376      155242.48      2379.2701      3.0110926    
      4580   2.29           46.648763      191.60175      4.2559842      195.85774      307.71707      155207.46      2379.2701      3.0110926    
      4590   2.295          47.454445      191.6025       4.2537751      195.85627      307.55735      155192.45      2379.2701      3.0110926    
      4600   2.3            48.259421      191.618        4.2362558      195.85426      306.29067      155203.05      2379.2701      3.0110926    
      4610   2.305          49.061677      191.65287      4.1988656      195.85174      303.58727      155244.9       2379.2701      3.0110926    
      4620   2.31           49.863782      191.71013      4.1388204      195.84895      299.24587      155321.59      2379.2701      3.0110926    
      4630   2.315          50.667332      191.78944      4.0567517      195.84619      293.31212      155432.48      2379.2701      3.0110926    
      4640   2.32           51.469142      191.88697      3.9568994      195.84387      286.09258      155572.37      2379.2701      3.0110926    
      4650   2.325          52.271205      191.99617      3.846305       195.84248      278.09636      155732.32      2379.2701      3.0110926    
      4660   2.33           53.073758      192.1088       3.7336838      195.84248      269.9536       155900.58      2379.2701      3.0110926    
      4670   2.335          53.87667       192.21606      3.6282829      195.84434      262.33288      156064.45      2379.2701      3.0110926    
      4680   2.34           54.680385      192.30969      3.5388112      195.8485       255.86388      156211.19      2379.2701      3.0110926    
      4690   2.345          55.482722      192.38277      3.4725338      195.8553       251.07188      156329.74      2379.2701      3.0110926    
      4700   2.35           56.286954      192.43042      3.4346569      195.86508      248.33329      156411.89      2379.2701      3.0110926    
      4710   2.355          57.090694      192.45002      3.428078       195.8781       247.85762      156453.64      2379.2701      3.0110926    
      4720   2.36           57.895369      192.44122      3.4533935      195.89461      249.68799      156454.24      2379.2701      3.0110926    
      4730   2.365          58.702891      192.40596      3.5088487      195.91481      253.69752      156417.52      2379.2701      3.0110926    
      4740   2.37           59.50845       192.34874      3.5900556      195.93879      259.56896      156351.3       2379.2701      3.0110926    
      4750   2.375          60.311653      192.27681      3.6897376      195.96655      266.77619      156267.4       2379.2701      3.0110926    
      4760   2.38           61.114183      192.19984      3.7980331      195.99787      274.6062       156179.79      2379.2701      3.0110926    
      4770   2.385          61.916695      192.12871      3.9036772      196.03239      282.24449      156103.34      2379.2701      3.0110926    
      4780   2.39           62.719777      192.07363      3.995888       196.06952      288.91154      156051.56      2379.2701      3.0110926    
      4790   2.395          63.52413       192.0422       4.0663817      196.10858      294.00839      156034.04      2379.2701      3.0110926    
      4800   2.4            64.328631      192.0379       4.1108922      196.14879      297.2266       156054.57      2379.2701      3.0110926    
      4810   2.405          65.13136       192.05967      4.1298246      196.18949      298.59545      156110.95      2379.2701      3.0110926    
      4820   2.41           65.934945      192.10218      4.1279648      196.23015      298.46098      156195.13      2379.2701      3.0110926    
      4830   2.415          66.741427      192.15704      4.1133491      196.27039      297.40423      156294.78      2379.2701      3.0110926    
      4840   2.42           67.546549      192.21453      4.0954923      196.31002      296.11315      156395.88      2379.2701      3.0110926    
      4850   2.425          68.349277      192.2656       4.0833796      196.34898      295.23738      156485.01      2379.2701      3.0110926    
      4860   2.43           69.152688      192.30343      4.0838004      196.38723      295.2678       156551.77      2379.2701      3.0110926    
      4870   2.435          69.959048      192.32427      4.1005343      196.42481      296.4777       156589.73      2379.2701      3.0110926    
      4880   2.44           70.763904      192.3271       4.1345538      196.46166      298.93739      156596.99      2379.2701      3.0110926    
      4890   2.445          71.567663      192.31271      4.1849413      196.49765      302.58051      156575.27      2379.2701      3.0110926    
      4900   2.45           72.373001      192.28268      4.2498893      196.53257      307.27639      156528.62      2379.2701      3.0110926    
      4910   2.455          73.175011      192.23898      4.3271801      196.56616      312.86469      156462.58      2379.2701      3.0110926    
      4920   2.46           73.978927      192.18414      4.4138948      196.59803      319.13435      156384.26      2379.2701      3.0110926    
      4930   2.465          74.782263      192.12219      4.5055629      196.62775      325.76216      156302         2379.2701      3.0110926    
      4940   2.47           75.586258      192.05956      4.5953153      196.65488      332.25146      156226.26      2379.2701      3.0110926    
      4950   2.475          76.388465      192.00515      4.6737173      196.67886      337.9201       156169.27      2379.2701      3.0110926    
      4960   2.48           77.191         191.96954      4.7297273      196.69927      341.96975      156144.11      2379.2701      3.0110926    
      4970   2.485          77.994273      191.96305      4.7527314      196.71578      343.63299      156161.93      2379.2701      3.0110926    
      4980   2.49           78.799731      191.99319      4.7350915      196.72828      342.35759      156229.35      2379.2701      3.0110926    
      4990   2.495          79.604919      192.06265      4.674361       196.73701      337.96664      156346.72      2379.2701      3.0110926    
      5000   2.5            80.409525      192.16799      4.5744395      196.74242      330.7421       156506.55      2379.2701      3.0110926    
      5010   2.505          81.216118      192.29993      4.4453523      196.74528      321.4088       156695.09      2379.2701      3.0110926    
      5020   2.51           82.021728      192.44464      4.301792       196.74643      311.02908      156893.81      2379.2701      3.0110926    
      5030   2.515          82.828365      192.58595      4.1608023      196.74675      300.83521      157081.83      2379.2701      3.0110926    
      5040   2.52           83.633847      192.70796      4.0390421      196.74701      292.03168      157239.53      2379.2701      3.0110926    
      5050   2.525          84.437985      192.79763      3.9500906      196.74772      285.60029      157350.79      2379.2701      3.0110926    
      5060   2.53           85.244114      192.84701      3.9023398      196.74935      282.1478       157406.21      2379.2701      3.0110926    
      5070   2.535          86.050957      192.85402      3.8980282      196.75205      281.83606      157404.13      2379.2701      3.0110926    
      5080   2.54           86.85515       192.82221      3.9336946      196.7559       284.41482      157349.52      2379.2701      3.0110926    
      5090   2.545          87.659702      192.75899      4.0017556      196.76075      289.33578      157253.03      2379.2701      3.0110926    
      5100   2.55           88.466283      192.67398      4.0923849      196.76636      295.88848      157127.53      2379.2701      3.0110926    
[...]
     98740   49.37          59.784619      191.57034      4.0604448      195.63078      293.57914      155129.45      2379.2701      3.0110926    
     98750   49.375         60.588618      191.55423      4.1208726      195.67511      297.94821      155129.83      2379.2701      3.0110926    
     98760   49.38          61.394832      191.55978      4.157204       195.71698      300.57504      155159.34      2379.2701      3.0110926    
     98770   49.385         62.197853      191.58625      4.1695874      195.75583      301.4704       155215.36      2379.2701      3.0110926    
     98780   49.39          63.003163      191.63111      4.1602758      195.79139      300.79714      155293.29      2379.2701      3.0110926    
     98790   49.395         63.810286      191.69051      4.1331056      195.82361      298.83268      155387.31      2379.2701      3.0110926    
     98800   49.4           64.615959      191.75956      4.0931747      195.85274      295.94559      155490.34      2379.2701      3.0110926    
     98810   49.405         65.419563      191.83255      4.0465851      195.87914      292.57706      155594.9       2379.2701      3.0110926    
     98820   49.41          66.223851      191.90336      3.9998599      195.90322      289.19872      155694.04      2379.2701      3.0110926    
     98830   49.415         67.028545      191.96669      3.9587993      195.92549      286.22994      155782.59      2379.2701      3.0110926    
     98840   49.42          67.832553      192.01928      3.9270613      195.94635      283.93522      155857.91      2379.2701      3.0110926    
     98850   49.425         68.638226      192.06094      3.9052302      195.96617      282.35678      155921.26      2379.2701      3.0110926    
     98860   49.43          69.445519      192.09421      3.8910395      195.98525      281.33076      155976.83      2379.2701      3.0110926    
     98870   49.435         70.250423      192.12308      3.8807189      196.0038       280.58456      156030.42      2379.2701      3.0110926    
     98880   49.44          71.058132      192.15126      3.8707476      196.02201      279.86362      156086.68      2379.2701      3.0110926    
     98890   49.445         71.868641      192.18082      3.8591734      196.03999      279.02677      156148.46      2379.2701      3.0110926    
     98900   49.45          72.678517      192.21184      3.8460698      196.05791      278.07936      156215.8       2379.2701      3.0110926    
     98910   49.455         73.489786      192.24264      3.8332432      196.07589      277.15196      156285.96      2379.2701      3.0110926    
     98920   49.46          74.297796      192.27044      3.823595       196.09404      276.45437      156353.89      2379.2701      3.0110926    
     98930   49.465         75.105056      192.29205      3.8204571      196.11251      276.2275       156413.9       2379.2701      3.0110926    
     98940   49.47          75.913644      192.30443      3.8269627      196.13139      276.69787      156460.16      2379.2701      3.0110926    
     98950   49.475         76.720185      192.30537      3.8453944      196.15077      278.03052      156487.91      2379.2701      3.0110926    
     98960   49.48          77.527253      192.2941       3.8765525      196.17065      280.28332      156494.76      2379.2701      3.0110926    
     98970   49.485         78.334103      192.27168      3.9193571      196.19104      283.37819      156480.28      2379.2701      3.0110926    
     98980   49.49          79.140491      192.24086      3.9709492      196.21181      287.10841      156447.28      2379.2701      3.0110926    
     98990   49.495         79.952088      192.20546      4.0273649      196.23283      291.18739      156400.74      2379.2701      3.0110926    
     99000   49.5           80.764339      192.16939      4.0845237      196.25391      295.3201       156347.01      2379.2701      3.0110926    
     99010   49.505         81.576061      192.13575      4.1390566      196.2748       299.26295      156291.48      2379.2701      3.0110926    
     99020   49.51          82.386493      192.10669      4.1885972      196.29529      302.84484      156238.96      2379.2701      3.0110926    
     99030   49.515         83.199543      192.08365      4.2315096      196.31516      305.94751      156192.54      2379.2701      3.0110926    
     99040   49.52          84.006772      192.06784      4.2663401      196.33418      308.46583      156155.18      2379.2701      3.0110926    
     99050   49.525         84.813816      192.06086      4.2913727      196.35223      310.27574      156129.8       2379.2701      3.0110926    
     99060   49.53          85.618937      192.06463      4.3045621      196.36919      311.22936      156120.81      2379.2701      3.0110926    
     99070   49.535         86.423826      192.08109      4.3039011      196.38499      311.18157      156132.59      2379.2701      3.0110926    
     99080   49.54          87.236135      192.11158      4.2880797      196.39966      310.03765      156168.44      2379.2701      3.0110926    
     99090   49.545         88.045544      192.1561       4.2571721      196.41327      307.80296      156229.48      2379.2701      3.0110926    
     99100   49.55          88.855626      192.21296      4.21306        196.42602      304.61355      156314.23      2379.2701      3.0110926    
     99110   49.555         89.662831      192.27869      4.1594364      196.43813      300.73645      156418.6       2379.2701      3.0110926    
     99120   49.56          90.471707      192.34846      4.1014532      196.44991      296.54414      156535.27      2379.2701      3.0110926    
     99130   49.565         91.279124      192.41642      4.0452198      196.46164      292.47834      156654.96      2379.2701      3.0110926    
     99140   49.57          92.089783      192.47636      3.9972898      196.47365      289.01289      156767.67      2379.2701      3.0110926    
     99150   49.575         92.899507      192.5221       3.9640753      196.48618      286.61141      156862.76      2379.2701      3.0110926    
     99160   49.58          93.708577      192.54844      3.9510411      196.49948      285.66901      156931.09      2379.2701      3.0110926    
     99170   49.585         94.515345      192.55197      3.9617333      196.5137       286.44208      156966.09      2379.2701      3.0110926    
     99180   49.59          95.322995      192.53185      3.9970181      196.52887      288.99325      156963.72      2379.2701      3.0110926    
     99190   49.595         96.130359      192.49001      4.0549675      196.54498      293.18312      156924.81      2379.2701      3.0110926    
     99200   49.6           96.936249      192.43039      4.1314625      196.56185      298.71388      156852.49      2379.2701      3.0110926    
     99210   49.605         97.745038      192.35811      4.2210987      196.57921      305.19478      156754.74      2379.2701      3.0110926    
     99220   49.61          98.550664      192.27887      4.3177989      196.59667      312.18641      156641.23      2379.2701      3.0110926    
     99230   49.615         99.360591      192.19894      4.414811       196.61375      319.2006       156523.55      2379.2701      3.0110926    
     99240   49.62          100.17167      192.12558      4.5042881      196.62987      325.66999      156414.63      2379.2701      3.0110926    
     99250   49.625         100.98421      192.06749      4.5769985      196.64449      330.92712      156328.23      2379.2701      3.0110926    
     99260   49.63          101.79881      192.03425      4.6228277      196.65708      334.24067      156279.85      2379.2701      3.0110926    
     99270   49.635         102.61083      192.03475      4.6325106      196.66726      334.94076      156282.11      2379.2701      3.0110926    
     99280   49.64          103.42327      192.07441      4.6004629      196.67487      332.62364      156342.2       2379.2701      3.0110926    
     99290   49.645         104.2313       192.15223      4.5278194      196.68004      327.37136      156456.54      2379.2701      3.0110926    
     99300   49.65          105.03985      192.25888      4.424289       196.68317      319.88588      156610.33      2379.2701      3.0110926    
     99310   49.655         105.85403      192.37725      4.3075848      196.68483      311.44791      156778.76      2379.2701      3.0110926    
     99320   49.66          106.66541      192.48555      4.200109       196.68566      303.67717      156931.18      2379.2701      3.0110926    
     99330   49.665         107.47553      192.56239      4.1238254      196.68622      298.1617       157038.22      2379.2701      3.0110926    
     99340   49.67          108.28337      192.59187      4.0950103      196.68688      296.0783       157077.74      2379.2701      3.0110926    
     99350   49.675         109.09179      192.56739      4.1204119      196.6878       297.9149       157040.51      2379.2701      3.0110926    
     99360   49.68          109.89761      192.49324      4.1956589      196.6889       303.35542      156932.73      2379.2701      3.0110926    
     99370   49.685         110.70575      192.38371      4.3060865      196.6898       311.33958      156774.44      2379.2701      3.0110926    
     99380   49.69          111.51182      192.26025      4.4296734      196.68992      320.27518      156595.92      2379.2701      3.0110926    
     99390   49.695         112.32429      192.14704      4.5414641      196.6885       328.3579       156431.3       2379.2701      3.0110926    
     99400   49.7           113.13698      192.0662       4.6185872      196.68479      333.93407      156312.44      2379.2701      3.0110926    
     99410   49.705         113.94938      192.03337      4.6447923      196.67817      335.82875      156263.25      2379.2701      3.0110926    
     99420   49.71          114.75943      192.05488      4.6134665      196.66834      333.56383      156294.33      2379.2701      3.0110926    
     99430   49.715         115.57122      192.12698      4.5284585      196.65544      327.41757      156401.94      2379.2701      3.0110926    
     99440   49.72          116.38247      192.23731      4.4026335      196.63994      318.32014      156568.8       2379.2701      3.0110926    
     99450   49.725         117.19537      192.36781      4.254703       196.62252      307.62444      156768.3       2379.2701      3.0110926    
     99460   49.73          118.00647      192.49859      4.1053669      196.60396      296.8271       156969.14      2379.2701      3.0110926    
     99470   49.735         118.81563      192.61107      3.9738815      196.58495      287.32042      157140.59      2379.2701      3.0110926    
     99480   49.74          119.63149      192.69019      3.8757541      196.56594      280.22559      157256.75      2379.2701      3.0110926    
     99490   49.745         120.44759      192.72559      3.8216187      196.54721      276.31149      157299.8       2379.2701      3.0110926    
     99500   49.75          121.26234      192.71187      3.8168494      196.52872      275.96666      157260.84      2379.2701      3.0110926    
     99510   49.755         122.07902      192.64891      3.8613675      196.51027      279.18541      157141.42      2379.2701      3.0110926    
     99520   49.76          122.89336      192.54199      3.9494416      196.49143      285.55336      156952.34      2379.2701      3.0110926    
     99530   49.765         123.70836      192.40181      4.0697413      196.47155      294.2513       156712.74      2379.2701      3.0110926    
     99540   49.77          124.5187       192.24368      4.2061312      196.44981      304.11259      156448.1       2379.2701      3.0110926    
     99550   49.775         125.32849      192.08582      4.3394889      196.42531      313.75465      156188.03      2379.2701      3.0110926    
     99560   49.78          126.13803      191.94676      4.4503677      196.39713      321.77143      155961.06      2379.2701      3.0110926    
     99570   49.785         126.9503       191.84263      4.5219242      196.36456      326.94512      155791.51      2379.2701      3.0110926    
     99580   49.79          127.7644       191.78477      4.5424402      196.32721      328.42847      155695.39      2379.2701      3.0110926    
     99590   49.795         128.57778      191.77824      4.5070268      196.28527      325.86801      155678.33      2379.2701      3.0110926    
     99600   49.8           129.38746      191.82101      4.4184347      196.23944      319.4626       155734.97      2379.2701      3.0110926    
     99610   49.805         130.19609      191.90395      4.2870184      196.19097      309.96091      155849.77      2379.2701      3.0110926    
     99620   49.81          131.00497      192.01158      4.1297657      196.14134      298.5912       155997.75      2379.2701      3.0110926    
     99630   49.815         131.81095      192.1239       3.9681957      196.0921       286.90932      156148.49      2379.2701      3.0110926    
     99640   49.82          132.61696      192.21935      3.825096       196.04445      276.5629       156270.08      2379.2701      3.0110926    
     99650   49.825         133.42147      192.27864      3.7204883      195.99913      268.99953      156335.32      2379.2701      3.0110926    
     99660   49.83          134.22874      192.28878      3.6676687      195.95645      265.18056      156326.55      2379.2701      3.0110926    
     99670   49.835         135.03787      192.24593      3.6703994      195.91633      265.37799      156239.91      2379.2701      3.0110926    
     99680   49.84          135.84663      192.15632      3.7220894      195.87841      269.1153       156085.63      2379.2701      3.0110926    
     99690   49.845         136.65336      192.0351       3.8072151      195.84232      275.27008      155885.89      2379.2701      3.0110926    
     99700   49.85          137.45852      191.90311      3.9045629      195.80767      282.30853      155670.59      2379.2701      3.0110926    
     99710   49.855         138.26494      191.78279      3.9914319      195.77422      288.58935      155471.81      2379.2701      3.0110926    
     99720   49.86          139.0696       191.69404      4.0478356      195.74188      292.66747      155318.38      2379.2701      3.0110926    
     99730   49.865         139.87733      191.65082      4.0599269      195.71074      293.5417       155231.69      2379.2701      3.0110926    
     99740   49.87          140.68265      191.65901      4.0221655      195.68118      290.81146      155223.01      2379.2701      3.0110926    
     99750   49.875         141.49301      191.71563      3.9380416      195.65368      284.72912      155291.05      2379.2701      3.0110926    
     99760   49.88          142.30397      191.8095       3.8193241      195.62882      276.14558      155422.12      2379.2701      3.0110926    
     99770   49.885         143.11256      191.92323      3.6839365      195.60716      266.35676      155592.06      2379.2701      3.0110926    
     99780   49.89          143.91596      192.03626      3.5527705      195.58903      256.87317      155770.43      2379.2701      3.0110926    
     99790   49.895         144.7225       192.12856      3.4460368      195.5746       249.15609      155926.44      2379.2701      3.0110926    
     99800   49.9           145.52752      192.18399      3.3798948      195.56388      244.37387      156033.68      2379.2701      3.0110926    
     99810   49.905         146.33288      192.19264      3.3640375      195.55668      243.22735      156074.6       2379.2701      3.0110926    
     99820   49.91          147.14189      192.15222      3.400619       195.55284      245.87228      156042.02      2379.2701      3.0110926    
     99830   49.915         147.94933      192.06756      3.4845167      195.55208      251.93827      155939.39      2379.2701      3.0110926    
     99840   49.92          148.75827      191.94947      3.6046323      195.5541       260.62289      155779.81      2379.2701      3.0110926    
     99850   49.925         149.56575      191.81267      3.7458445      195.55851      270.83284      155583.03      2379.2701      3.0110926    
     99860   49.93          150.37008      191.67353      3.891284       195.56481      281.34844      155372.74      2379.2701      3.0110926    
     99870   49.935         151.17549      191.54776      4.0246613      195.57242      290.99192      155173.75      2379.2701      3.0110926    
     99880   49.94          151.98032      191.44834      4.132363       195.58071      298.77899      155008.12      2379.2701      3.0110926    
     99890   49.945         152.78955      191.38415      4.2049737      195.58912      304.0289       154893.06      2379.2701      3.0110926    
     99900   49.95          153.59503      191.35931      4.2379025      195.59721      306.40972      154839         2379.2701      3.0110926    
     99910   49.955         154.40146      191.37368      4.2311025      195.60478      305.91807      154848.74      2379.2701      3.0110926    
     99920   49.96          155.20446      191.42352      4.1882899      195.61181      302.82263      154918.47      2379.2701      3.0110926    
     99930   49.965         156.0087       191.50224      4.1162333      195.61847      297.61277      155038.38      2379.2701      3.0110926    
     99940   49.97          156.81448      191.6007       4.0243949      195.6251       290.97265      155192.84      2379.2701      3.0110926    
     99950   49.975         157.61862      191.7075       3.9246163      195.63212      283.75844      155362.5       2379.2701      3.0110926    
     99960   49.98          158.42329      191.8098       3.8301631      195.63996      276.92927      155525.87      2379.2701      3.0110926    
     99970   49.985         159.22921      191.89536      3.7536927      195.64905      271.40028      155662.87      2379.2701      3.0110926    
     99980   49.99          160.03701      191.9552       3.704497       195.6597       267.84333      155758.97      2379.2701      3.0110926    
     99990   49.995         160.84506      191.98611      3.6861097      195.67222      266.51388      155807.66      2379.2701      3.0110926    
    100000   50             161.6577       191.99136      3.6954308      195.68679      267.18782      155813.02      2379.2701      3.0110926    
Loop time of 161.658 on 1 procs for 2000 steps with 108 atoms

Performance: 0.534 ns/day, 44.905 hours/ns, 12.372 timesteps/s, 1.336 katom-step/s
100.0% CPU use with 1 MPI tasks x 1 OpenMP threads

MPI task timing breakdown:
Section |  min time  |  avg time  |  max time  |%varavg| %total
---------------------------------------------------------------
Pair    | 161.61     | 161.61     | 161.61     |   0.0 | 99.97
Neigh   | 0          | 0          | 0          |   0.0 |  0.00
Comm    | 0.020205   | 0.020205   | 0.020205   |   0.0 |  0.01
Output  | 0.025567   | 0.025567   | 0.025567   |   0.0 |  0.02
Modify  | 0.0043773  | 0.0043773  | 0.0043773  |   0.0 |  0.00
Other   |            | 0.002606   |            |       |  0.00

Nlocal:            108 ave         108 max         108 min
Histogram: 1 0 0 0 0 0 0 0 0 0
Nghost:           3322 ave        3322 max        3322 min
Histogram: 1 0 0 0 0 0 0 0 0 0
Neighs:              0 ave           0 max           0 min
Histogram: 1 0 0 0 0 0 0 0 0 0
FullNghs:        57808 ave       57808 max       57808 min
Histogram: 1 0 0 0 0 0 0 0 0 0

Total # of neighbors = 57808
Ave neighs/atom = 535.25926
Neighbor list builds = 0
Dangerous builds = 0
Total wall time: 2:14:14
