
pair_style    mace no_domain_decomposition

read_data     dat.lammps
Reading data file ...
  orthogonal box = (0 0 0) to (13.349999 13.349999 13.349999)
  1 by 1 by 1 MPI processor grid
  reading atoms ...
  108 atoms
  read_data CPU = 0.001 seconds

# Use the MACE MP-0b3 medium TorchScript model exported via create_lammps_model
pair_coeff    * *  mace-mp-0b3-medium.model-lammps.pt  Ar

mass           1 39.948

# Wrapper provides ${dump_root} via the command line to decide where dumps land.
variable dumpdir string ${dump_root}
variable dumpdir string /dev/shm/mace_mp0.kpP7Ow

thermo_style  custom step time cpu pe ke etotal temp press vol density
thermo        10

velocity      all create 300.0 12345
fix           myEnse all nvt temp 300.0 300.0 0.1
timestep      5.0e-4

variable chunk equal 2000
variable nloop equal 50
variable i loop ${nloop}
variable i loop 50
label chunk_loop
variable dumpfile string ${dumpdir}/xyz_${i}.lammpstrj
variable dumpfile string /dev/shm/mace_mp0.kpP7Ow/xyz_${i}.lammpstrj
variable dumpfile string /dev/shm/mace_mp0.kpP7Ow/xyz_1.lammpstrj
dump          myDump all custom 10 ${dumpfile} id element xu yu zu
dump          myDump all custom 10 /dev/shm/mace_mp0.kpP7Ow/xyz_1.lammpstrj id element xu yu zu
dump_modify   myDump sort id element Ar flush yes
run           ${chunk}
run           2000
Generated 0 of 0 mixed pair_coeff terms from geometric mixing rule
Neighbor list info ...
  update: every = 1 steps, delay = 0 steps, check = yes
  max neighbors/atom: 2000, page size: 100000
  master list distance cutoff = 14
  ghost atom cutoff = 14
  binsize = 7, bins = 2 2 2
  1 neighbor lists, perpetual/occasional/extra = 1 0 0
  (1) pair mace, perpetual
      attributes: full, newton on
      pair build: full/bin/atomonly
      stencil: full/bin/3d
      bin: standard
Per MPI rank memory allocation (min/avg/max) = 3.136 | 3.136 | 3.136 Mbytes
   Step          Time           CPU           PotEng         KinEng         TotEng          Temp          Press          Volume        Density    
         0   0              0             -6.0523682      4.1492507     -1.9031176      300            2079.8981      2379.2701      3.0110926    
        10   0.005          2.4320253     -6.0524026      4.1492844     -1.9031182      300.00244      2079.8718      2379.2701      3.0110926    
        20   0.01           3.290846      -6.052501       4.1493824     -1.9031186      300.00953      2079.7755      2379.2701      3.0110926    
        30   0.015          4.0654011     -6.0526562      4.1495367     -1.9031194      300.02069      2079.5612      2379.2701      3.0110926    
        40   0.02           4.8454617     -6.052857       4.1497353     -1.9031217      300.03504      2079.1578      2379.2701      3.0110926    
        50   0.025          5.627173      -6.0530897      4.1499631     -1.9031266      300.05151      2078.474       2379.2701      3.0110926    
        60   0.03           6.4128588     -6.0533385      4.1502033     -1.9031352      300.06888      2077.4092      2379.2701      3.0110926    
        70   0.035          7.9222124     -6.0535875      4.1504389     -1.9031486      300.08591      2075.8588      2379.2701      3.0110926    
        80   0.04           9.7578189     -6.0538216      4.1506534     -1.9031682      300.10142      2073.7132      2379.2701      3.0110926    
        90   0.045          10.538492     -6.0540281      4.1508328     -1.9031953      300.11439      2070.866       2379.2701      3.0110926    
       100   0.05           11.31014      -6.0541966      4.1509654     -1.9032312      300.12398      2067.2192      2379.2701      3.0110926    
       110   0.055          12.08454      -6.0543199      4.1510432     -1.9032766      300.12961      2062.6777      2379.2701      3.0110926    
       120   0.06           12.861776     -6.0543945      4.1510619     -1.9033326      300.13096      2057.1679      2379.2701      3.0110926    
       130   0.065          13.641155     -6.0544205      4.1510207     -1.9033998      300.12798      2050.6596      2379.2701      3.0110926    
       140   0.07           14.424911     -6.0544009      4.1509227     -1.9034782      300.12089      2043.1489      2379.2701      3.0110926    
       150   0.075          15.221825     -6.0543426      4.150774      -1.9035686      300.11014      2034.6647      2379.2701      3.0110926    
       160   0.08           16.018315     -6.054255       4.1505842     -1.9036708      300.09642      2025.2633      2379.2701      3.0110926    
       170   0.085          16.819963     -6.0541498      4.1503649     -1.9037849      300.08056      2014.9991      2379.2701      3.0110926    
       180   0.09           17.620335     -6.0540397      4.1501289     -1.9039108      300.0635       2003.9503      2379.2701      3.0110926    
       190   0.095          18.421092     -6.0539382      4.1498897     -1.9040484      300.04621      1992.2208      2379.2701      3.0110926    
       200   0.1            19.221015     -6.0538587      4.1496607     -1.904198       300.02965      1979.923       2379.2701      3.0110926    
       210   0.105          20.016174     -6.0538134      4.1494539     -1.9043596      300.01469      1967.177       2379.2701      3.0110926    
       220   0.11           20.813618     -6.0538102      4.1492763     -1.9045338      300.00186      1954.197       2379.2701      3.0110926    
       230   0.115          21.605146     -6.0538353      4.149114      -1.9047213      299.99012      1941.3066      2379.2701      3.0110926    
       240   0.12           22.397961     -6.0538573      4.1489342     -1.9049231      299.97712      1928.7451      2379.2701      3.0110926    
       250   0.125          23.186101     -6.0538217      4.1486816     -1.9051401      299.95886      1916.9039      2379.2701      3.0110926    
       260   0.13           23.981563     -6.0536357      4.1482623     -1.9053733      299.92854      1906.2705      2379.2701      3.0110926    
       270   0.135          24.76991      -6.0531536      4.147531      -1.9056226      299.87566      1897.5333      2379.2701      3.0110926    
       280   0.14           25.557959     -6.0521638      4.1462776     -1.9058862      299.78504      1891.5418      2379.2701      3.0110926    
       290   0.145          26.344162     -6.0503718      4.1442124     -1.9061594      299.63573      1889.3606      2379.2701      3.0110926    
       300   0.15           27.133368     -6.0473953      4.1409627     -1.9064326      299.40076      1892.0091      2379.2701      3.0110926    
       310   0.155          27.917972     -6.0427763      4.1360872     -1.9066891      299.04825      1900.5702      2379.2701      3.0110926    
       320   0.16           28.701062     -6.0359929      4.1290914     -1.9069015      298.54244      1916.1583      2379.2701      3.0110926    
       330   0.165          29.481089     -6.0264859      4.1194569     -1.907029       297.84584      1939.8216      2379.2701      3.0110926    
       340   0.17           30.260947     -6.0137042      4.1066917     -1.9070126      296.92289      1972.3809      2379.2701      3.0110926    
       350   0.175          31.042578     -5.9971652      4.0903919     -1.9067733      295.74438      2014.4959      2379.2701      3.0110926    
       360   0.18           31.812216     -5.9765092      4.0703005     -1.9062087      294.29173      2066.6467      2379.2701      3.0110926    
       370   0.185          32.574193     -5.9515626      4.0463727     -1.9051898      292.5617       2129.0306      2379.2701      3.0110926    
       380   0.19           33.346841     -5.922406       4.0188427     -1.9035634      290.57121      2201.2687      2379.2701      3.0110926    
       390   0.195          34.118842     -5.8894449      3.9882936     -1.9011512      288.36245      2282.2288      2379.2701      3.0110926    
       400   0.2            34.886718     -5.8534568      3.9557012     -1.8977556      286.00594      2370.107       2379.2701      3.0110926    
       410   0.205          35.64691      -5.8155834      3.9224188     -1.8931645      283.59956      2462.5735      2379.2701      3.0110926    
       420   0.21           36.412246     -5.7772439      3.8900874     -1.8871565      281.26192      2556.9035      2379.2701      3.0110926    
       430   0.215          37.184096     -5.7399777      3.8604694     -1.8795083      279.12048      2650.2776      2379.2701      3.0110926    
       440   0.22           37.953871     -5.7052681      3.8352616     -1.8700065      277.2979       2739.9256      2379.2701      3.0110926    
       450   0.225          38.725973     -5.6744031      3.8159544     -1.8584487      275.90194      2823.3503      2379.2701      3.0110926    
       460   0.23           39.499898     -5.6484071      3.8037566     -1.8446505      275.02001      2898.4676      2379.2701      3.0110926    
       470   0.235          40.263301     -5.6280096      3.7995535     -1.8284561      274.71612      2963.7121      2379.2701      3.0110926    
       480   0.24           41.035063     -5.6135884      3.803848      -1.8097404      275.02663      3018.1572      2379.2701      3.0110926    
       490   0.245          41.804913     -5.6051017      3.8166836     -1.7884181      275.95466      3061.5818      2379.2701      3.0110926    
       500   0.25           42.576304     -5.6020502      3.837597      -1.7644531      277.46675      3094.5126      2379.2701      3.0110926    
       510   0.255          43.339319     -5.6035183      3.8656568     -1.7378616      279.49554      3118.1403      2379.2701      3.0110926    
       520   0.26           44.097652     -5.6083247      3.8995986     -1.7087261      281.9496       3134.1065      2379.2701      3.0110926    
       530   0.265          44.852911     -5.6152143      3.9380224     -1.6771919      284.72773      3144.2405      2379.2701      3.0110926    
       540   0.27           45.610665     -5.6230646      3.9795898     -1.6434748      287.73315      3150.2533      2379.2701      3.0110926    
       550   0.275          46.370207     -5.63102        4.0231696     -1.6078504      290.88406      3153.5351      2379.2701      3.0110926    
       560   0.28           47.132585     -5.6385567      4.0679077     -1.570649       294.11873      3155.0227      2379.2701      3.0110926    
       570   0.285          47.892794     -5.6454625      4.1132208     -1.5322417      297.39496      3155.2473      2379.2701      3.0110926    
       580   0.29           48.65147      -5.6517588      4.1587317     -1.4930271      300.6855       3154.3806      2379.2701      3.0110926    
       590   0.295          49.406799     -5.6575932      4.2041746     -1.4534186      303.97112      3152.2395      2379.2701      3.0110926    
       600   0.3            50.160727     -5.6631302      4.249299      -1.4138312      307.23372      3148.5828      2379.2701      3.0110926    
       610   0.305          50.918298     -5.6684906      4.2938204     -1.3746702      310.45271      3143.3955      2379.2701      3.0110926    
       620   0.31           51.673824     -5.6737159      4.3373922     -1.3363237      313.60305      3136.7905      2379.2701      3.0110926    
       630   0.315          52.429628     -5.6787875      4.3796367     -1.2991509      316.65742      3128.7653      2379.2701      3.0110926    
       640   0.32           53.185615     -5.6836871      4.4202087     -1.2634784      319.59086      3119.4682      2379.2701      3.0110926    
       650   0.325          53.940586     -5.6884765      4.4588766     -1.2295999      322.38664      3108.9391      2379.2701      3.0110926    
       660   0.33           54.695461     -5.6933251      4.4955574     -1.1977678      325.03874      3097.1068      2379.2701      3.0110926    
       670   0.335          55.453058     -5.6984768      4.5302769     -1.1681999      327.54904      3083.6636      2379.2701      3.0110926    
       680   0.34           56.212479     -5.7041512      4.5630698     -1.1410813      329.92004      3068.4923      2379.2701      3.0110926    
       690   0.345          56.971788     -5.7104343      4.5938629     -1.1165714      332.14645      3051.7713      2379.2701      3.0110926    
       700   0.35           57.730603     -5.7171681      4.6223615     -1.0948066      334.20696      3033.8035      2379.2701      3.0110926    
       710   0.355          58.489221     -5.7239295      4.6480215     -1.0759079      336.06224      3015.0534      2379.2701      3.0110926    
       720   0.36           59.248054     -5.7301462      4.6701665     -1.0599797      337.66337      2996.2154      2379.2701      3.0110926    
       730   0.365          60.00486      -5.7353485      4.6882373     -1.0471112      338.96993      2977.8557      2379.2701      3.0110926    
       740   0.37           60.761639     -5.7394686      4.7020994     -1.0373692      339.97219      2959.905       2379.2701      3.0110926    
       750   0.375          61.513882     -5.7430717      4.7122635     -1.0308082      340.70707      2941.5086      2379.2701      3.0110926    
       760   0.38           62.265082     -5.7473218      4.7198594     -1.0274624      341.25627      2921.2755      2379.2701      3.0110926    
       770   0.385          63.017973     -5.753631       4.7262644     -1.0273666      341.71937      2897.6952      2379.2701      3.0110926    
       780   0.39           63.769117     -5.7630325      4.7324734     -1.0305591      342.16829      2869.7234      2379.2701      3.0110926    
       790   0.395          64.524975     -5.775647       4.7385519     -1.037095       342.60779      2837.3062      2379.2701      3.0110926    
       800   0.4            65.277799     -5.7905553      4.7435154     -1.04704        342.96665      2801.4347      2379.2701      3.0110926    
       810   0.405          66.02855      -5.8061744      4.7457149     -1.0604595      343.12568      2764.0489      2379.2701      3.0110926    
       820   0.41           66.776859     -5.8208585      4.7434518     -1.0774067      342.96206      2727.4241      2379.2701      3.0110926    
       830   0.415          67.525212     -5.8333696      4.7354728     -1.0978967      342.38516      2693.5652      2379.2701      3.0110926    
       840   0.42           68.275793     -5.843042       4.7211453     -1.1218967      341.34925      2663.8228      2379.2701      3.0110926    
       850   0.425          69.026299     -5.8497076      4.7003921     -1.1493155      339.84875      2638.8221      2379.2701      3.0110926    
       860   0.43           69.774482     -5.853485       4.6734932     -1.1799917      337.9039       2618.632       2379.2701      3.0110926    
       870   0.435          70.523781     -5.854605       4.6409056     -1.2136994      335.54774      2603.2251      2379.2701      3.0110926    
       880   0.44           71.27178      -5.8532718      4.6031328     -1.250139       332.81668      2592.5021      2379.2701      3.0110926    
       890   0.445          72.023215     -5.849585       4.5606438     -1.2889412      329.74463      2586.6448      2379.2701      3.0110926    
       900   0.45           72.77397      -5.8435079      4.5138396     -1.3296683      326.36059      2585.7263      2379.2701      3.0110926    
       910   0.455          73.522289     -5.834905       4.4630824     -1.3718226      322.69073      2589.8255      2379.2701      3.0110926    
       920   0.46           74.271467     -5.8236219      4.4087647     -1.4148572      318.76344      2598.9599      2379.2701      3.0110926    
       930   0.465          75.022312     -5.8096198      4.3514277     -1.4581922      314.61785      2612.7512      2379.2701      3.0110926    
       940   0.47           75.772444     -5.7931469      4.2919091     -1.5012378      310.31452      2630.369       2379.2701      3.0110926    
       950   0.475          76.522434     -5.7749023      4.2314784     -1.5434239      305.94525      2650.3997      2379.2701      3.0110926    
       960   0.48           77.272735     -5.7561022      4.171874      -1.5842283      301.63571      2670.8067      2379.2701      3.0110926    
       970   0.485          78.023328     -5.7383633      4.1151602     -1.6232031      297.53519      2689.0072      2379.2701      3.0110926    
       980   0.49           78.774229     -5.72343        4.0634353     -1.6599947      293.79536      2702.3673      2379.2701      3.0110926    
       990   0.495          79.524468     -5.7127913      4.0184405     -1.6943508      290.54214      2708.5874      2379.2701      3.0110926    
      1000   0.5            80.272807     -5.7073263      3.9812087     -1.7261176      287.85019      2706.3909      2379.2701      3.0110926    
      1010   0.505          81.020954     -5.7071521      3.9519228     -1.7552293      285.73276      2695.5691      2379.2701      3.0110926    
      1020   0.51           81.770445     -5.7117195      3.9300343     -1.7816852      284.15018      2676.8424      2379.2701      3.0110926    
      1030   0.515          82.52167      -5.7200702      3.9145328     -1.8055374      283.02938      2651.7854      2379.2701      3.0110926    
      1040   0.52           83.273815     -5.7311065      3.9042294     -1.826877       282.28442      2622.2983      2379.2701      3.0110926    
      1050   0.525          84.024376     -5.7437553      3.8979402     -1.8458151      281.8297       2590.3091      2379.2701      3.0110926    
      1060   0.53           84.775023     -5.7569763      3.8944979     -1.8624785      281.58081      2557.9355      2379.2701      3.0110926    
      1070   0.535          85.523358     -5.7696734      3.8926741     -1.8769994      281.44895      2527.3738      2379.2701      3.0110926    
      1080   0.54           86.275353     -5.7806304      3.8911237     -1.8895067      281.33685      2500.8258      2379.2701      3.0110926    
      1090   0.545          87.02694      -5.7885746      3.8884558     -1.9001188      281.14396      2480.3356      2379.2701      3.0110926    
      1100   0.55           87.775054     -5.7923841      3.8834422     -1.9089419      280.78146      2467.6522      2379.2701      3.0110926    
      1110   0.555          88.527029     -5.7913431      3.8752833     -1.9160598      280.19155      2463.8166      2379.2701      3.0110926    
      1120   0.56           89.278574     -5.7853742      3.863835      -1.9215392      279.36381      2468.7694      2379.2701      3.0110926    
      1130   0.565          90.028882     -5.775136       3.8497086     -1.9254274      278.34245      2481.3803      2379.2701      3.0110926    
      1140   0.57           90.77849      -5.7619698      3.8342138     -1.927756       277.22214      2499.5159      2379.2701      3.0110926    
      1150   0.575          91.52747      -5.7477076      3.8191615     -1.9285461      276.13382      2520.2545      2379.2701      3.0110926    
      1160   0.58           92.277037     -5.7343769      3.8065611     -1.9278159      275.22279      2540.4598      2379.2701      3.0110926    
      1170   0.585          93.028434     -5.7238524      3.7982678     -1.9255845      274.62317      2557.1355      2379.2701      3.0110926    
      1180   0.59           93.779486     -5.7175513      3.7956721     -1.9218792      274.43549      2567.9414      2379.2701      3.0110926    
      1190   0.595          94.530938     -5.7162326      3.7994971     -1.9167355      274.71204      2571.438       2379.2701      3.0110926    
      1200   0.6            95.282372     -5.7199594      3.809753      -1.9102064      275.45357      2567.2805      2379.2701      3.0110926    
      1210   0.605          96.034879     -5.7281937      3.8258352     -1.9023585      276.61635      2556.0973      2379.2701      3.0110926    
      1220   0.61           96.788871     -5.7399856      3.8467082     -1.8932774      278.12551      2539.1173      2379.2701      3.0110926    
      1230   0.615          97.542473     -5.7541711      3.8711108     -1.8830603      279.88987      2518.2293      2379.2701      3.0110926    
      1240   0.62           98.301876     -5.7695197      3.8976996     -1.8718201      281.8123       2495.6211      2379.2701      3.0110926    
      1250   0.625          99.076309     -5.7848319      3.9251532     -1.8596787      283.79726      2473.3789      2379.2701      3.0110926    
      1260   0.63           99.84453      -5.7989986      3.9522378     -1.8467608      285.75553      2453.5634      2379.2701      3.0110926    
      1270   0.635          100.61432     -5.8110361      3.9778395     -1.8331966      287.60659      2437.8267      2379.2701      3.0110926    
      1280   0.64           101.38633     -5.8201246      4.0010162     -1.8191084      289.28232      2427.7081      2379.2701      3.0110926    
      1290   0.645          102.1589      -5.825659       4.0210476     -1.8046114      290.73063      2424.3596      2379.2701      3.0110926    
      1300   0.65           102.93024     -5.8272659      4.0374567     -1.7898092      291.91705      2428.4897      2379.2701      3.0110926    
      1310   0.655          103.70192     -5.8248258      4.0500378     -1.774788       292.82669      2440.3204      2379.2701      3.0110926    
      1320   0.66           104.47501     -5.818489       4.058872      -1.759617       293.46542      2459.5425      2379.2701      3.0110926    
      1330   0.665          105.2473      -5.8086804      4.064336      -1.7443444      293.86048      2485.3452      2379.2701      3.0110926    
      1340   0.67           106.0214      -5.7960978      4.0670954     -1.7290024      294.05999      2516.4229      2379.2701      3.0110926    
      1350   0.675          106.79735     -5.781679       4.0680722     -1.7136068      294.13062      2551.0552      2379.2701      3.0110926    
      1360   0.68           107.56932     -5.7665311      4.0683705     -1.6981605      294.15219      2587.2496      2379.2701      3.0110926    
      1370   0.685          108.3419      -5.7518124      4.0691519     -1.6826606      294.20868      2622.8239      2379.2701      3.0110926    
      1380   0.69           109.11326     -5.7385874      4.0714855     -1.6671019      294.37741      2655.8005      2379.2701      3.0110926    
      1390   0.695          109.88694     -5.7276971      4.0762123     -1.6514847      294.71917      2684.5231      2379.2701      3.0110926    
      1400   0.7            110.65787     -5.7196837      4.0838681     -1.6358157      295.27269      2707.9239      2379.2701      3.0110926    
      1410   0.705          111.42862     -5.7148064      4.0946884     -1.6201179      296.05503      2725.2584      2379.2701      3.0110926    
      1420   0.71           112.19985     -5.7130759      4.1086496     -1.6044263      297.06446      2736.133       2379.2701      3.0110926    
      1430   0.715          112.96978     -5.7143018      4.1255078     -1.588794       298.28334      2740.7514      2379.2701      3.0110926    
      1440   0.72           113.74224     -5.7181169      4.1448312     -1.5732857      299.68046      2739.6824      2379.2701      3.0110926    
      1450   0.725          114.51171     -5.724038       4.1660519     -1.5579861      301.21477      2733.7505      2379.2701      3.0110926    
      1460   0.73           115.28396     -5.7315143      4.1885283     -1.542986       302.83986      2723.9418      2379.2701      3.0110926    
      1470   0.735          116.05343     -5.7400057      4.2116178     -1.528388       304.50928      2711.2865      2379.2701      3.0110926    
      1480   0.74           116.8232      -5.7490192      4.2347225     -1.5142967      306.1798       2696.8585      2379.2701      3.0110926    
      1490   0.745          117.59355     -5.7581143      4.2572926     -1.5008217      307.81167      2681.6785      2379.2701      3.0110926    
      1500   0.75           118.36067     -5.7668264      4.2787579     -1.4880685      309.36366      2666.7158      2379.2701      3.0110926    
      1510   0.755          119.12769     -5.7745819      4.298445      -1.4761369      310.78708      2653.1168      2379.2701      3.0110926    
      1520   0.76           119.89492     -5.7806668      4.3155472     -1.4651196      312.02361      2642.1583      2379.2701      3.0110926    
      1530   0.765          120.66331     -5.7843158      4.3292205     -1.4550952      313.01222      2634.8376      2379.2701      3.0110926    
      1540   0.77           121.43211     -5.7849596      4.3388346     -1.446125       313.70734      2631.7232      2379.2701      3.0110926    
      1550   0.775          122.19925     -5.7825695      4.3443225     -1.438247       314.10413      2632.597       2379.2701      3.0110926    
      1560   0.78           122.96632     -5.7779785      4.3465032     -1.4314753      314.26179      2636.1544      2379.2701      3.0110926    
      1570   0.785          123.73331     -5.7729651      4.3471586     -1.4258065      314.30918      2640.0193      2379.2701      3.0110926    
      1580   0.79           124.50781     -5.7698745      4.3486483     -1.4212261      314.41689      2641.317       2379.2701      3.0110926    
      1590   0.795          125.27653     -5.7707647      4.3530396     -1.417725       314.73439      2637.7067      2379.2701      3.0110926    
      1600   0.8            126.04572     -5.7764647      4.3611527     -1.415312       315.32099      2628.3624      2379.2701      3.0110926    
      1610   0.805          126.81642     -5.786113       4.372093      -1.41402        316.112        2614.5773      2379.2701      3.0110926    
      1620   0.81           127.58625     -5.7974837      4.3835805     -1.4139032      316.94256      2599.1612      2379.2701      3.0110926    
      1630   0.815          128.35264     -5.807912       4.3928874     -1.4150246      317.61547      2585.3036      2379.2701      3.0110926    
      1640   0.82           129.11998     -5.8152333      4.3977934     -1.4174399      317.97019      2575.7674      2379.2701      3.0110926    
      1650   0.825          129.8892      -5.8183301      4.3971428     -1.4211873      317.92315      2572.1851      2379.2701      3.0110926    
      1660   0.83           130.65891     -5.8171951      4.3909177     -1.4262774      317.47306      2574.89        2379.2701      3.0110926    
      1670   0.835          131.42854     -5.8126894      4.3799887     -1.4327006      316.68287      2583.0427      2379.2701      3.0110926    
      1680   0.84           132.19666     -5.8060996      4.3656694     -1.4404302      315.64755      2595.1788      2379.2701      3.0110926    
      1690   0.845          132.96478     -5.7986416      4.3492075     -1.4494341      314.45732      2609.6163      2379.2701      3.0110926    
      1700   0.85           133.73447     -5.791069       4.3313852     -1.4596839      313.16873      2625.091       2379.2701      3.0110926    
      1710   0.855          134.50565     -5.7835295      4.3123696     -1.4711599      311.79386      2640.94        2379.2701      3.0110926    
      1720   0.86           135.27776     -5.7757557      4.2919006     -1.4838551      310.31391      2656.9361      2379.2701      3.0110926    
      1730   0.865          136.04642     -5.7675202      4.2697433     -1.4977769      308.71188      2672.6722      2379.2701      3.0110926    
      1740   0.87           136.81612     -5.7591344      4.2461853     -1.5129492      307.00859      2687.1546      2379.2701      3.0110926    
      1750   0.875          137.58389     -5.7516674      4.2222452     -1.5294222      305.27767      2698.7239      2379.2701      3.0110926    
      1760   0.88           138.35304     -5.7466839      4.1993965     -1.5472874      303.62565      2705.4008      2379.2701      3.0110926    
      1770   0.885          139.12274     -5.7455695      4.1788754     -1.5666941      302.14193      2705.7098      2379.2701      3.0110926    
      1780   0.89           139.89173     -5.7488008      4.16094       -1.5878608      300.84516      2699.0502      2379.2701      3.0110926    
      1790   0.895          140.64824     -5.7556315      4.1445485     -1.611083       299.66002      2686.2995      2379.2701      3.0110926    
      1800   0.9            141.3998      -5.7643317      4.1276014     -1.6367304      298.43471      2669.5957      2379.2701      3.0110926    
      1810   0.905          142.15061     -5.7727653      4.1075362     -1.665229       296.98396      2651.6089      2379.2701      3.0110926    
      1820   0.91           142.90089     -5.7789883      4.0819468     -1.6970415      295.13378      2634.7976      2379.2701      3.0110926    
      1830   0.915          143.64728     -5.7816265      4.0490022     -1.7326243      292.75182      2620.9692      2379.2701      3.0110926    
      1840   0.92           144.39712     -5.7800212      4.0076505     -1.7723707      289.762        2610.9092      2379.2701      3.0110926    
      1850   0.925          145.14644     -5.7742293      3.9576934     -1.8165359      286.14998      2604.5099      2379.2701      3.0110926    
      1860   0.93           145.89472     -5.7649587      3.8998086     -1.8651501      281.96479      2600.803       2379.2701      3.0110926    
      1870   0.935          146.64418     -5.7534596      3.8355215     -1.9179381      277.31669      2598.0863      2379.2701      3.0110926    
      1880   0.94           147.3985      -5.7413463      3.7670742     -1.9742721      272.3678       2594.3172      2379.2701      3.0110926    
      1890   0.945          148.15192     -5.7303209      3.6971494     -2.0331715      267.31208      2587.5519      2379.2701      3.0110926    
      1900   0.95           148.924       -5.72185        3.6284765     -2.0933735      262.34687      2576.1206      2379.2701      3.0110926    
      1910   0.955          149.69628     -5.7168817      3.5634274     -2.1534543      257.64368      2559.0772      2379.2701      3.0110926    
      1920   0.96           150.46678     -5.7157241      3.5037441     -2.21198        253.32845      2536.2942      2379.2701      3.0110926    
      1930   0.965          151.23969     -5.7181194      3.4504638     -2.2676556      249.47616      2508.3011      2379.2701      3.0110926    
      1940   0.97           152.01218     -5.7234609      3.4040345     -2.3194264      246.11922      2476.1195      2379.2701      3.0110926    
      1950   0.975          152.78605     -5.7310572      3.364519      -2.3665382      243.26217      2440.6692      2379.2701      3.0110926    
      1960   0.98           153.5597      -5.7403167      3.3317778     -2.4085389      240.8949       2402.8669      2379.2701      3.0110926    
      1970   0.985          154.33509     -5.7508298      3.3055885     -2.4452414      239.00136      2363.5538      2379.2701      3.0110926    
      1980   0.99           155.1096      -5.7623248      3.2856614     -2.4766634      237.56059      2323.3165      2379.2701      3.0110926    
      1990   0.995          155.88146     -5.7745725      3.2716083     -2.5029642      236.54451      2282.7499      2379.2701      3.0110926    
      2000   1              156.6386      -5.7872953      3.2629124     -2.5243829      235.91578      2242.6595      2379.2701      3.0110926    
Loop time of 156.639 on 1 procs for 2000 steps with 108 atoms

Performance: 0.552 ns/day, 43.511 hours/ns, 12.768 timesteps/s, 1.379 katom-step/s
99.8% CPU use with 1 MPI tasks x 1 OpenMP threads

MPI task timing breakdown:
Section |  min time  |  avg time  |  max time  |%varavg| %total
---------------------------------------------------------------
Pair    | 156.57     | 156.57     | 156.57     |   0.0 | 99.96
Neigh   | 0.0085458  | 0.0085458  | 0.0085458  |   0.0 |  0.01
Comm    | 0.020512   | 0.020512   | 0.020512   |   0.0 |  0.01
Output  | 0.027488   | 0.027488   | 0.027488   |   0.0 |  0.02
Modify  | 0.0053315  | 0.0053315  | 0.0053315  |   0.0 |  0.00
Other   |            | 0.003094   |            |       |  0.00

Nlocal:            108 ave         108 max         108 min
Histogram: 1 0 0 0 0 0 0 0 0 0
Nghost:           3084 ave        3084 max        3084 min
Histogram: 1 0 0 0 0 0 0 0 0 0
Neighs:              0 ave           0 max           0 min
Histogram: 1 0 0 0 0 0 0 0 0 0
FullNghs:        56358 ave       56358 max       56358 min
Histogram: 1 0 0 0 0 0 0 0 0 0

Total # of neighbors = 56358
Ave neighs/atom = 521.83333
Neighbor list builds = 7
Dangerous builds = 0
undump        myDump
next i
jump SELF chunk_loop
variable dumpfile string ${dumpdir}/xyz_${i}.lammpstrj
variable dumpfile string /dev/shm/mace_mp0.kpP7Ow/xyz_${i}.lammpstrj
variable dumpfile string /dev/shm/mace_mp0.kpP7Ow/xyz_2.lammpstrj
dump          myDump all custom 10 ${dumpfile} id element xu yu zu
dump          myDump all custom 10 /dev/shm/mace_mp0.kpP7Ow/xyz_2.lammpstrj id element xu yu zu
dump_modify   myDump sort id element Ar flush yes
run           ${chunk}
run           2000
Generated 0 of 0 mixed pair_coeff terms from geometric mixing rule
Per MPI rank memory allocation (min/avg/max) = 3.136 | 3.136 | 3.136 Mbytes
   Step          Time           CPU           PotEng         KinEng         TotEng          Temp          Press          Volume        Density    
      2000   1              0             -5.7872953      3.2629124     -2.5243829      235.91578      2242.6595      2379.2701      3.0110926    
      2010   1.005          0.76128526    -5.8001347      3.2589368     -2.5411979      235.62834      2203.8036      2379.2701      3.0110926    
      2020   1.01           1.5213791     -5.8126758      3.2589852     -2.5536906      235.63184      2166.8629      2379.2701      3.0110926    
      2030   1.015          2.280553      -5.8245154      3.2623872     -2.5621282      235.87781      2132.63        2379.2701      3.0110926    
      2040   1.02           3.0410836     -5.8353267      3.2685743     -2.5667524      236.32515      2101.8186      2379.2701      3.0110926    
      2050   1.025          3.8031188     -5.8448995      3.2771228     -2.5677766      236.94323      2074.9235      2379.2701      3.0110926    
      2060   1.03           4.5640135     -5.8531427      3.2877585     -2.5653841      237.71221      2052.2813      2379.2701      3.0110926    
      2070   1.035          5.3253492     -5.8600594      3.3003239     -2.5597355      238.62072      2034.0474      2379.2701      3.0110926    
      2080   1.04           6.087042      -5.8656968      3.314728      -2.5509688      239.66216      2020.2911      2379.2701      3.0110926    
      2090   1.045          6.8475106     -5.8701098      3.3309021     -2.5392077      240.83159      2011.0388      2379.2701      3.0110926    
      2100   1.05           7.6058823     -5.8733344      3.3487652     -2.5245692      242.12313      2006.2826      2379.2701      3.0110926    
      2110   1.055          8.3640418     -5.8753757      3.3682079     -2.5071678      243.52888      2005.9898      2379.2701      3.0110926    
      2120   1.06           9.1158922     -5.8762199      3.3890937     -2.4871262      245.03897      2009.9827      2379.2701      3.0110926    
      2130   1.065          9.8726277     -5.8758618      3.4112832     -2.4645785      246.64332      2018.1306      2379.2701      3.0110926    
      2140   1.07           10.628824     -5.8743454      3.4346668     -2.4396786      248.334        2030.2341      2379.2701      3.0110926    
      2150   1.075          11.38293      -5.8717891      3.4591847     -2.4126044      250.10671      2045.9167      2379.2701      3.0110926    
      2160   1.08           12.133397     -5.8683829      3.4848236     -2.3835594      251.96045      2064.6685      2379.2701      3.0110926    
      2170   1.085          12.888029     -5.8643792      3.5116023     -2.3527769      253.89662      2085.845       2379.2701      3.0110926    
      2180   1.09           13.64093      -5.8600672      3.5395531     -2.3205141      255.91752      2108.6909      2379.2701      3.0110926    
      2190   1.095          14.393501     -5.8557405      3.5686868     -2.2870537      258.02395      2132.4398      2379.2701      3.0110926    
      2200   1.1            15.146367     -5.8516621      3.5989692     -2.2526929      260.21343      2156.3827      2379.2701      3.0110926    
      2210   1.105          15.902196     -5.8480449      3.6303048     -2.2177401      262.47907      2179.7647      2379.2701      3.0110926    
      2220   1.11           16.658588     -5.8450417      3.6625417     -2.1825         264.80987      2202.0368      2379.2701      3.0110926    
      2230   1.115          17.41327      -5.8427681      3.6954992     -2.1472689      267.19277      2222.7141      2379.2701      3.0110926    
      2240   1.12           18.166491     -5.8413089      3.728989      -2.1123199      269.61415      2241.3651      2379.2701      3.0110926    
      2250   1.125          18.920285     -5.8407356      3.7628374     -2.0778982      272.06146      2257.7463      2379.2701      3.0110926    
      2260   1.13           19.672402     -5.8411029      3.7968931     -2.0442098      274.52377      2271.7148      2379.2701      3.0110926    
      2270   1.135          20.424176     -5.8424408      3.8310185     -2.0114223      276.99111      2283.1847      2379.2701      3.0110926    
      2280   1.14           21.177423     -5.8447382      3.8650747     -1.9796635      279.45345      2292.1274      2379.2701      3.0110926    
      2290   1.145          21.929069     -5.8479348      3.8989101     -1.9490247      281.89983      2298.6265      2379.2701      3.0110926    
      2300   1.15           22.681393     -5.8519172      3.9323536     -1.9195636      284.31786      2302.8587      2379.2701      3.0110926    
      2310   1.155          23.434852     -5.8565275      3.965215      -1.8913126      286.69381      2305.1099      2379.2701      3.0110926    
      2320   1.16           24.188448     -5.8615646      3.997282      -1.8642827      289.01233      2305.7023      2379.2701      3.0110926    
      2330   1.165          24.946177     -5.8667975      4.0283273     -1.8384702      291.25698      2305.1887      2379.2701      3.0110926    
      2340   1.17           25.701974     -5.8720031      4.0581407     -1.8138624      293.41255      2304.1181      2379.2701      3.0110926    
      2350   1.175          26.459693     -5.8769823      4.0865428     -1.7904394      295.46609      2302.9382      2379.2701      3.0110926    
      2360   1.18           27.217268     -5.8815719      4.1133937     -1.7681782      297.40747      2302.1472      2379.2701      3.0110926    
      2370   1.185          27.975929     -5.885647       4.1385914     -1.7470556      299.22931      2302.1845      2379.2701      3.0110926    
      2380   1.19           28.733307     -5.8891121      4.1620638     -1.7270483      300.92642      2303.3565      2379.2701      3.0110926    
      2390   1.195          29.49071      -5.8918878      4.183752      -1.7081358      302.49453      2305.9626      2379.2701      3.0110926    
      2400   1.2            30.246135     -5.8938786      4.2035807     -1.6902979      303.92818      2310.2626      2379.2701      3.0110926    
      2410   1.205          31.001625     -5.8949572      4.2214398     -1.6735175      305.21943      2316.4246      2379.2701      3.0110926    
      2420   1.21           31.758412     -5.8949724      4.237193      -1.6577795      306.35842      2324.5821      2379.2701      3.0110926    
      2430   1.215          32.518298     -5.8937619      4.2506952     -1.6430668      307.33466      2334.8575      2379.2701      3.0110926    
      2440   1.22           33.280234     -5.8911975      4.2618337     -1.6293638      308.14         2347.25        2379.2701      3.0110926    
      2450   1.225          34.039843     -5.887234       4.2705828     -1.6166512      308.77258      2361.592       2379.2701      3.0110926    
      2460   1.23           34.801626     -5.8819766      4.2770692     -1.6049073      309.24157      2377.4773      2379.2701      3.0110926    
      2470   1.235          35.560039     -5.8757272      4.2816229     -1.5941043      309.5708       2394.269       2379.2701      3.0110926    
      2480   1.24           36.317153     -5.8689973      4.2847843     -1.584213       309.79939      2411.0764      2379.2701      3.0110926    
      2490   1.245          37.075477     -5.8624514      4.2872476     -1.5752038      309.97749      2426.8282      2379.2701      3.0110926    
      2500   1.25           37.833099     -5.8567846      4.289738      -1.5670466      310.15754      2440.5292      2379.2701      3.0110926    
      2510   1.255          38.590442     -5.8525651      4.2928484     -1.5597167      310.38244      2451.2559      2379.2701      3.0110926    
      2520   1.26           39.345691     -5.8500871      4.2968851     -1.5532021      310.6743       2458.6644      2379.2701      3.0110926    
      2530   1.265          40.109102     -5.8492935      4.3017974     -1.5474961      311.02947      2462.8788      2379.2701      3.0110926    
      2540   1.27           40.867123     -5.8498296      4.3072256     -1.542604       311.42194      2464.3351      2379.2701      3.0110926    
      2550   1.275          41.627744     -5.8511748      4.3126344     -1.5385404      311.813        2463.7457      2379.2701      3.0110926    
      2560   1.28           42.387767     -5.8528021      4.317479      -1.5353231      312.16328      2461.9684      2379.2701      3.0110926    
      2570   1.285          43.152083     -5.8543041      4.3213327     -1.5329714      312.44192      2459.7581      2379.2701      3.0110926    
      2580   1.29           43.918581     -5.855454       4.3239468     -1.5315072      312.63092      2457.5996      2379.2701      3.0110926    
      2590   1.295          44.677803     -5.8561751      4.325231      -1.5309441      312.72377      2455.8474      2379.2701      3.0110926    
      2600   1.3            45.439385     -5.8564762      4.3251773     -1.5312989      312.71989      2454.7293      2379.2701      3.0110926    
      2610   1.305          46.200916     -5.8563426      4.3237648     -1.5325778      312.61776      2454.4855      2379.2701      3.0110926    
      2620   1.31           46.959827     -5.8556696      4.3208808     -1.5347888      312.40924      2455.2663      2379.2701      3.0110926    
      2630   1.315          47.732569     -5.8542455      4.3163127     -1.5379328      312.07896      2457.3197      2379.2701      3.0110926    
      2640   1.32           48.495259     -5.8518043      4.3097998     -1.5420045      311.60806      2460.9091      2379.2701      3.0110926    
      2650   1.325          49.253444     -5.8481249      4.3011345     -1.5469904      310.98154      2466.2271      2379.2701      3.0110926    
      2660   1.33           50.011546     -5.843148       4.290277      -1.552871       310.19652      2473.3458      2379.2701      3.0110926    
      2670   1.335          50.770556     -5.8370555      4.2774424     -1.5596131      309.26855      2482.0754      2379.2701      3.0110926    
      2680   1.34           51.528982     -5.8303072      4.2631265     -1.5671806      308.23348      2491.677       2379.2701      3.0110926    
      2690   1.345          52.287659     -5.8235611      4.2480325     -1.5755286      307.14215      2501.3456      2379.2701      3.0110926    
      2700   1.35           53.045597     -5.8175319      4.2329172     -1.5846147      306.04928      2510.4818      2379.2701      3.0110926    
      2710   1.355          53.805812     -5.8127908      4.2183921     -1.5943987      304.99908      2518.5048      2379.2701      3.0110926    
      2720   1.36           54.56358      -5.8095941      4.2047483     -1.6048458      304.0126       2525.2799      2379.2701      3.0110926    
      2730   1.365          55.32317      -5.8077763      4.1918474     -1.6159289      303.07984      2531.1984      2379.2701      3.0110926    
      2740   1.37           56.080845     -5.8067508      4.1791256     -1.6276253      302.16002      2537.1053      2379.2701      3.0110926    
      2750   1.375          56.840512     -5.8056206      4.1657081     -1.6399125      301.18991      2544.3355      2379.2701      3.0110926    
      2760   1.38           57.600014     -5.8033372      4.1505747     -1.6527625      300.09573      2554.393       2379.2701      3.0110926    
      2770   1.385          58.361081     -5.7988552      4.1327183     -1.6661369      298.80467      2568.8335      2379.2701      3.0110926    
      2780   1.39           59.122516     -5.7912448      4.1112667     -1.6799781      297.25368      2588.9257      2379.2701      3.0110926    
      2790   1.395          59.885224     -5.7797862      4.0855761     -1.6942101      295.39619      2615.5776      2379.2701      3.0110926    
      2800   1.4            60.645924     -5.764039       4.055312      -1.708727       293.20803      2649.0778      2379.2701      3.0110926    
      2810   1.405          61.406187     -5.7439516      4.0205488     -1.7234029      290.69457      2688.977       2379.2701      3.0110926    
      2820   1.41           62.16602      -5.7199768      3.9818958     -1.738081       287.89987      2733.9765      2379.2701      3.0110926    
      2830   1.415          62.928023     -5.6932077      3.9406178     -1.7525899      284.91538      2781.7245      2379.2701      3.0110926    
      2840   1.42           63.686011     -5.665445       3.8986985     -1.7667464      281.88453      2829.0362      2379.2701      3.0110926    
      2850   1.425          64.444598     -5.6391072      3.8587386     -1.7803686      278.99533      2872.2977      2379.2701      3.0110926    
      2860   1.43           65.204037     -5.6168896      3.8236037     -1.7932858      276.45501      2907.807       2379.2701      3.0110926    
      2870   1.435          65.967277     -5.6012467      3.7958959     -1.8053508      274.45167      2932.2169      2379.2701      3.0110926    
      2880   1.44           66.730338     -5.5937768      3.7773291     -1.8164477      273.10925      2943.4071      2379.2701      3.0110926    
      2890   1.445          67.491877     -5.5947389      3.7682549     -1.826484       272.45317      2941.1021      2379.2701      3.0110926    
      2900   1.45           68.255071     -5.6029729      3.7675741     -1.8353988      272.40394      2926.9096      2379.2701      3.0110926    
      2910   1.455          69.018671     -5.6162398      3.773096      -1.8431438      272.80319      2903.8804      2379.2701      3.0110926    
      2920   1.46           69.783138     -5.6318657      3.7821831     -1.8496826      273.4602       2875.8219      2379.2701      3.0110926    
      2930   1.465          70.549352     -5.6473878      3.79241       -1.8549778      274.19963      2846.3458      2379.2701      3.0110926    
      2940   1.47           71.312255     -5.6610021      3.8020157     -1.8589865      274.89414      2818.3409      2379.2701      3.0110926    
      2950   1.475          72.076889     -5.6717534      3.8100984     -1.8616549      275.47855      2793.6771      2379.2701      3.0110926    
      2960   1.48           72.841683     -5.6794708      3.8165554     -1.8629154      275.94539      2773.0714      2379.2701      3.0110926    
      2970   1.485          73.604063     -5.6845647      3.8218797     -1.8626849      276.33036      2756.3797      2379.2701      3.0110926    
      2980   1.49           74.367572     -5.6877906      3.8269226     -1.860868       276.69497      2742.8879      2379.2701      3.0110926    
      2990   1.495          75.12825      -5.6900423      3.8326837     -1.8573586      277.11151      2731.5384      2379.2701      3.0110926    
      3000   1.5            75.888388     -5.6921987      3.8401562     -1.8520425      277.65179      2721.117       2379.2701      3.0110926    
      3010   1.505          76.650344     -5.6950295      3.8502246     -1.8448049      278.37976      2710.5071      2379.2701      3.0110926    
      3020   1.51           77.411605     -5.699132       3.8636011     -1.8355309      279.34691      2698.8777      2379.2701      3.0110926    
      3030   1.515          78.172849     -5.7048798      3.8807651     -1.8241147      280.5879       2685.6744      2379.2701      3.0110926    
      3040   1.52           78.932996     -5.7123746      3.9019125     -1.8104621      282.11691      2670.8278      2379.2701      3.0110926    
      3050   1.525          79.6922       -5.7214124      3.9269118     -1.7945005      283.92441      2654.95        2379.2701      3.0110926    
      3060   1.53           80.450156     -5.7314751      3.9552929     -1.7761822      285.97643      2639.1854      2379.2701      3.0110926    
      3070   1.535          81.208096     -5.7418069      3.9863135     -1.7554935      288.21928      2624.963       2379.2701      3.0110926    
      3080   1.54           81.963855     -5.7515399      4.0190821     -1.7324578      290.58852      2613.8913      2379.2701      3.0110926    
      3090   1.545          82.721713     -5.75981        4.0526713     -1.7071387      293.0171       2607.5983      2379.2701      3.0110926    
      3100   1.55           83.479548     -5.7658689      4.0862244     -1.6796445      295.44306      2607.7053      2379.2701      3.0110926    
      3110   1.555          84.233368     -5.769129       4.1190045     -1.6501246      297.81313      2615.6905      2379.2701      3.0110926    
      3120   1.56           84.990169     -5.7690948      4.1503271     -1.6187676      300.07783      2632.7512      2379.2701      3.0110926    
      3130   1.565          85.748799     -5.7652469      4.1794479     -1.585799       302.18333      2659.9361      2379.2701      3.0110926    
      3140   1.57           86.505553     -5.7569218      4.2054477     -1.5514741      304.06317      2698.2547      2379.2701      3.0110926    
      3150   1.575          87.26453      -5.7432899      4.2272211     -1.5160688      305.63744      2748.5219      2379.2701      3.0110926    
      3160   1.58           88.026094     -5.7234744      4.2436024     -1.479872       306.82184      2811.2796      2379.2701      3.0110926    
      3170   1.585          88.785299     -5.6968147      4.2536454     -1.4431693      307.54797      2886.3744      2379.2701      3.0110926    
      3180   1.59           89.54451      -5.6632547      4.2570281     -1.4062266      307.79255      2972.4781      2379.2701      3.0110926    
      3190   1.595          90.303519     -5.6237586      4.2544825     -1.369276       307.6085       3066.8008      2379.2701      3.0110926    
      3200   1.6            91.061979     -5.5806106      4.2481093     -1.3325013      307.1477       3165.0632      2379.2701      3.0110926    
      3210   1.605          91.819869     -5.537401       4.241366      -1.296035       306.66014      3261.3464      2379.2701      3.0110926    
      3220   1.61           92.579024     -5.4984909      4.2385281     -1.2599628      306.45495      3349.131       2379.2701      3.0110926    
      3230   1.615          93.334151     -5.4680451      4.2437013     -1.2243438      306.82899      3422.2933      2379.2701      3.0110926    
      3240   1.62           94.089817     -5.4489577      4.2597212     -1.1892366      307.98726      3476.4452      2379.2701      3.0110926    
      3250   1.625          94.845475     -5.442134       4.2874038     -1.1547302      309.98878      3509.9113      2379.2701      3.0110926    
      3260   1.63           95.601694     -5.446463       4.325494      -1.120969       312.74278      3523.5745      2379.2701      3.0110926    
      3270   1.635          96.359599     -5.4594217      4.3712626     -1.0881591      316.05195      3520.5502      2379.2701      3.0110926    
      3280   1.64           97.115555     -5.4779844      4.4214201     -1.0565642      319.67846      3505.1262      2379.2701      3.0110926    
      3290   1.645          97.872695     -5.4993765      4.4728892     -1.0264873      323.39978      3481.626       2379.2701      3.0110926    
      3300   1.65           98.626821     -5.5214542      4.5232064     -0.99824788     327.03783      3453.7345      2379.2701      3.0110926    
      3310   1.655          99.383853     -5.5427154      4.5705574     -0.97215801     330.46141      3424.3612      2379.2701      3.0110926    
      3320   1.66           100.1397      -5.5621203      4.61361       -0.94851025     333.57421      3395.6492      2379.2701      3.0110926    
      3330   1.665          100.89837     -5.5789364      4.6513706     -0.92756582     336.30438      3369.0426      2379.2701      3.0110926    
      3340   1.67           101.65559     -5.5927491      4.6832023     -0.90954674     338.60589      3345.2949      2379.2701      3.0110926    
      3350   1.675          102.41104     -5.6036171      4.7089849     -0.89463213     340.47003      3324.3389      2379.2701      3.0110926    
      3360   1.68           103.16604     -5.612221       4.7292593     -0.88296166     341.93591      3305.1519      2379.2701      3.0110926    
      3370   1.685          103.92344     -5.6198244      4.7451872     -0.87463726     343.08753      3286.1404      2379.2701      3.0110926    
      3380   1.69           104.68094     -5.6279569      4.7582179     -0.869739       344.02968      3265.423       2379.2701      3.0110926    
      3390   1.695          105.4364      -5.6378936      4.7695573     -0.86833633     344.84954      3241.4665      2379.2701      3.0110926    
      3400   1.7            106.19416     -5.6501594      4.7796576     -0.87050181     345.57981      3213.7569      2379.2701      3.0110926    
      3410   1.705          106.95239     -5.6643276      4.7880163     -0.87631137     346.18417      3182.7164      2379.2701      3.0110926    
      3420   1.71           107.71116     -5.6792329      4.793385      -0.88584793     346.57234      3149.1693      2379.2701      3.0110926    
      3430   1.715          108.46771     -5.6934394      4.7942591     -0.89918034     346.63554      3114.7169      2379.2701      3.0110926    
      3440   1.72           109.2246      -5.7057833      4.7894301     -0.91635315     346.28639      3080.959       2379.2701      3.0110926    
      3450   1.725          109.9791      -5.715659       4.7782893     -0.93736973     345.48088      3048.932       2379.2701      3.0110926    
      3460   1.73           110.73615     -5.723057       4.7608736     -0.96218344     344.22169      3019.0145      2379.2701      3.0110926    
      3470   1.735          111.49377     -5.728418       4.7377278     -0.99069018     342.5482       2990.8923      2379.2701      3.0110926    
      3480   1.74           112.25032     -5.7324269      4.7096992     -1.0227276      340.52167      2963.696       2379.2701      3.0110926    
      3490   1.745          113.00964     -5.7358125      4.6777392     -1.0580732      338.21089      2936.43        2379.2701      3.0110926    
      3500   1.75           113.76762     -5.7391971      4.6427549     -1.0964422      335.68145      2908.2231      2379.2701      3.0110926    
      3510   1.755          114.5222      -5.7430218      4.6055342     -1.1374875      332.99031      2878.3957      2379.2701      3.0110926    
      3520   1.76           115.2787      -5.7475363      4.5667372     -1.1807991      330.1852       2846.5959      2379.2701      3.0110926    
      3530   1.765          116.03759     -5.7528459      4.5269363     -1.2259095      327.30751      2812.7249      2379.2701      3.0110926    
      3540   1.77           116.79647     -5.7589801      4.486685      -1.2722952      324.39725      2776.8049      2379.2701      3.0110926    
      3550   1.775          117.55605     -5.7659509      4.4465508     -1.3194001      321.49546      2738.9427      2379.2701      3.0110926    
      3560   1.78           118.31305     -5.7737398      4.4070973     -1.3666424      318.64289      2699.3784      2379.2701      3.0110926    
      3570   1.785          119.06964     -5.7822691      4.3688216     -1.4134475      315.87546      2658.5904      2379.2701      3.0110926    
      3580   1.79           119.82739     -5.7913572      4.3320939     -1.4592634      313.21997      2617.3533      2379.2701      3.0110926    
      3590   1.795          120.5838      -5.8006939      4.29711       -1.5035839      310.69056      2576.4468      2379.2701      3.0110926    
      3600   1.8            121.33937     -5.809863       4.2638929     -1.5459701      308.28889      2536.9218      2379.2701      3.0110926    
      3610   1.805          122.09622     -5.8183791      4.2323203     -1.5860589      306.00612      2499.9294      2379.2701      3.0110926    
      3620   1.81           122.85206     -5.8257438      4.2021728     -1.623571       303.82639      2466.5233      2379.2701      3.0110926    
      3630   1.815          123.60995     -5.831501       4.1731857     -1.6583153      301.73056      2437.5779      2379.2701      3.0110926    
      3640   1.82           124.36919     -5.8352758      4.1450923     -1.6901835      299.69934      2413.8214      2379.2701      3.0110926    
      3650   1.825          125.12747     -5.8367978      4.1176566     -1.7191412      297.71568      2395.7817      2379.2701      3.0110926    
      3660   1.83           125.88908     -5.8359125      4.0906965     -1.745216       295.7664       2383.6491      2379.2701      3.0110926    
      3670   1.835          126.64978     -5.8325943      4.0641065     -1.7684878      293.84389      2377.2445      2379.2701      3.0110926    
      3680   1.84           127.41219     -5.8269625      4.0378921     -1.7890704      291.94853      2376.1643      2379.2701      3.0110926    
      3690   1.845          128.17338     -5.8193138      4.0122117     -1.8071021      290.09178      2379.5763      2379.2701      3.0110926    
      3700   1.85           128.93386     -5.8101452      3.9874144     -1.8227308      288.29888      2386.3997      2379.2701      3.0110926    
      3710   1.855          129.6926      -5.8001837      3.9640733     -1.8361103      286.61127      2395.1702      2379.2701      3.0110926    
      3720   1.86           130.4538      -5.7903718      3.9429805     -1.8473913      285.08621      2404.0658      2379.2701      3.0110926    
      3730   1.865          131.21607     -5.7818117      3.9250916     -1.8567201      283.79281      2411.2413      2379.2701      3.0110926    
      3740   1.87           131.97341     -5.775628       3.9113927     -1.8642353      282.80234      2414.9627      2379.2701      3.0110926    
      3750   1.875          132.73103     -5.772765       3.902695      -1.87007        282.17348      2413.7372      2379.2701      3.0110926    
      3760   1.88           133.48917     -5.773768       3.8994142     -1.8743538      281.93627      2406.7293      2379.2701      3.0110926    
      3770   1.885          134.25151     -5.7786326      3.9014231     -1.8772095      282.08152      2393.8842      2379.2701      3.0110926    
      3780   1.89           135.01209     -5.7867972      3.9080395     -1.8787577      282.5599       2375.9465      2379.2701      3.0110926    
      3790   1.895          135.77246     -5.7972964      3.9181812     -1.8791152      283.29317      2354.3008      2379.2701      3.0110926    
      3800   1.9            136.53443     -5.8089947      3.9306034     -1.8783913      284.19132      2330.7666      2379.2701      3.0110926    
      3810   1.905          137.29649     -5.8208029      3.9441127     -1.8766902      285.16807      2307.1911      2379.2701      3.0110926    
      3820   1.91           138.05741     -5.8318228      3.9577149     -1.8741079      286.15154      2285.132       2379.2701      3.0110926    
      3830   1.915          138.81976     -5.8413956      3.9706665     -1.8707291      287.08797      2265.7632      2379.2701      3.0110926    
      3840   1.92           139.58475     -5.8490852      3.982456      -1.8666292      287.94038      2250.038       2379.2701      3.0110926    
      3850   1.925          140.34804     -5.8546319      3.992762      -1.8618699      288.68552      2238.7695      2379.2701      3.0110926    
      3860   1.93           141.11243     -5.8579058      4.0014019     -1.8565038      289.31021      2232.4692      2379.2701      3.0110926    
      3870   1.935          141.87654     -5.8588631      4.0082929     -1.8505702      289.80844      2231.4247      2379.2701      3.0110926    
      3880   1.94           142.63918     -5.8575225      4.0134235     -1.844099       290.1794       2235.7366      2379.2701      3.0110926    
      3890   1.945          143.39965     -5.8539409      4.0168335     -1.8371074      290.42595      2245.4349      2379.2701      3.0110926    
      3900   1.95           144.15942     -5.8482177      4.0186125     -1.8296052      290.55457      2260.2737      2379.2701      3.0110926    
      3910   1.955          144.91972     -5.8405154      4.0189238     -1.8215916      290.57708      2279.8607      2379.2701      3.0110926    
      3920   1.96           145.68036     -5.8310939      4.0180359     -1.813058       290.51289      2303.5318      2379.2701      3.0110926    
      3930   1.965          146.44053     -5.8203481      4.0163609     -1.8039873      290.39178      2330.2537      2379.2701      3.0110926    
      3940   1.97           147.2008      -5.8088428      4.014484      -1.7943588      290.25607      2358.8901      2379.2701      3.0110926    
      3950   1.975          147.969       -5.7973061      4.0131586     -1.7841475      290.16024      2388.2908      2379.2701      3.0110926    
      3960   1.98           148.74004     -5.7865805      4.0132544     -1.7733261      290.16717      2417.0145      2379.2701      3.0110926    
      3970   1.985          149.50855     -5.7775113      4.0156397     -1.7618715      290.33964      2443.7485      2379.2701      3.0110926    
      3980   1.99           150.27653     -5.7708015      4.0210339     -1.7497675      290.72965      2467.4815      2379.2701      3.0110926    
      3990   1.995          151.04631     -5.7668481      4.0298411     -1.737007       291.36642      2487.6552      2379.2701      3.0110926    
      4000   2              151.81546     -5.7656123      4.0420161     -1.7235963      292.2467       2504.281       2379.2701      3.0110926    
Loop time of 151.816 on 1 procs for 2000 steps with 108 atoms

Performance: 0.569 ns/day, 42.171 hours/ns, 13.174 timesteps/s, 1.423 katom-step/s
100.0% CPU use with 1 MPI tasks x 1 OpenMP threads

MPI task timing breakdown:
Section |  min time  |  avg time  |  max time  |%varavg| %total
---------------------------------------------------------------
Pair    | 151.75     | 151.75     | 151.75     |   0.0 | 99.96
Neigh   | 0.0084921  | 0.0084921  | 0.0084921  |   0.0 |  0.01
Comm    | 0.021842   | 0.021842   | 0.021842   |   0.0 |  0.01
Output  | 0.028607   | 0.028607   | 0.028607   |   0.0 |  0.02
Modify  | 0.0057082  | 0.0057082  | 0.0057082  |   0.0 |  0.00
Other   |            | 0.003492   |            |       |  0.00

Nlocal:            108 ave         108 max         108 min
Histogram: 1 0 0 0 0 0 0 0 0 0
Nghost:           3060 ave        3060 max        3060 min
Histogram: 1 0 0 0 0 0 0 0 0 0
Neighs:              0 ave           0 max           0 min
Histogram: 1 0 0 0 0 0 0 0 0 0
FullNghs:        56456 ave       56456 max       56456 min
Histogram: 1 0 0 0 0 0 0 0 0 0

Total # of neighbors = 56456
Ave neighs/atom = 522.74074
Neighbor list builds = 7
Dangerous builds = 0
undump        myDump
next i
jump SELF chunk_loop
variable dumpfile string ${dumpdir}/xyz_${i}.lammpstrj
variable dumpfile string /dev/shm/mace_mp0.kpP7Ow/xyz_${i}.lammpstrj
variable dumpfile string /dev/shm/mace_mp0.kpP7Ow/xyz_3.lammpstrj
dump          myDump all custom 10 ${dumpfile} id element xu yu zu
dump          myDump all custom 10 /dev/shm/mace_mp0.kpP7Ow/xyz_3.lammpstrj id element xu yu zu
dump_modify   myDump sort id element Ar flush yes
run           ${chunk}
run           2000
Generated 0 of 0 mixed pair_coeff terms from geometric mixing rule
Per MPI rank memory allocation (min/avg/max) = 3.136 | 3.136 | 3.136 Mbytes
   Step          Time           CPU           PotEng         KinEng         TotEng          Temp          Press          Volume        Density    
      4000   2              0             -5.7656123      4.0420161     -1.7235963      292.2467       2504.2807      2379.2701      3.0110926    
      4010   2.005          0.76798128    -5.7665848      4.0570282     -1.7095566      293.33211      2517.997       2379.2701      3.0110926    
      4020   2.01           1.5350946     -5.7688629      4.073938      -1.694925       294.55473      2529.9434      2379.2701      3.0110926    
      4030   2.015          2.3021725     -5.7713179      4.0915693     -1.6797486      295.82951      2541.5583      2379.2701      3.0110926    
      4040   2.02           3.0698496     -5.7727975      4.1087128     -1.6640848      297.06902      2554.4375      2379.2701      3.0110926    
      4050   2.025          3.8402459     -5.7722983      4.1243048     -1.6479935      298.19636      2569.8273      2379.2701      3.0110926    
      4060   2.03           4.6098218     -5.7691211      4.1375906     -1.6315305      299.15695      2588.5187      2379.2701      3.0110926    
      4070   2.035          5.3796122     -5.7629854      4.1482413     -1.6147442      299.92702      2610.7801      2379.2701      3.0110926    
      4080   2.04           6.1476588     -5.7541056      4.1564347     -1.5976709      300.51943      2636.3098      2379.2701      3.0110926    
      4090   2.045          6.9121678     -5.7432232      4.1628903     -1.5803329      300.98618      2664.0391      2379.2701      3.0110926    
      4100   2.05           7.6804037     -5.7315739      4.1688349     -1.5627389      301.41599      2692.223       2379.2701      3.0110926    
      4110   2.055          8.4487386     -5.7207089      4.1758191     -1.5448898      301.92096      2718.8263      2379.2701      3.0110926    
      4120   2.06           9.2136581     -5.7121607      4.1853778     -1.5267829      302.61207      2741.8193      2379.2701      3.0110926    
      4130   2.065          9.9799846     -5.7070371      4.1986165     -1.5084206      303.56926      2759.7006      2379.2701      3.0110926    
      4140   2.07           10.750064     -5.7057211      4.2159016     -1.4898195      304.81901      2771.849       2379.2701      3.0110926    
      4150   2.075          11.512141     -5.7078283      4.236813      -1.4710153      306.33095      2778.6652      2379.2701      3.0110926    
      4160   2.08           12.273823     -5.7124291      4.2603632     -1.452066       308.03368      2781.2909      2379.2701      3.0110926    
      4170   2.085          13.032994     -5.7184394      4.2853899     -1.4330495      309.84317      2781.1044      2379.2701      3.0110926    
      4180   2.09           13.793285     -5.7249773      4.3109192     -1.4140581      311.68899      2779.3378      2379.2701      3.0110926    
      4190   2.095          14.568659     -5.7315246      4.3363326     -1.395192       313.52644      2777.2455      2379.2701      3.0110926    
      4200   2.1            15.346532     -5.7378736      4.3613148     -1.3765587      315.33271      2775.6425      2379.2701      3.0110926    
      4210   2.105          16.121268     -5.7439115      4.3856455     -1.358266       317.09187      2775.341       2379.2701      3.0110926    
      4220   2.11           16.896761     -5.7493986      4.4089757     -1.3404229      318.77869      2777.0152      2379.2701      3.0110926    
      4230   2.115          17.672636     -5.7538447      4.4307058     -1.3231389      320.34983      2781.6789      2379.2701      3.0110926    
      4240   2.12           18.449517     -5.756563       4.4500408     -1.3065222      321.7478       2790.5684      2379.2701      3.0110926    
      4250   2.125          19.223053     -5.7568525      4.466176      -1.2906765      322.91441      2804.7092      2379.2701      3.0110926    
      4260   2.13           19.996662     -5.7541527      4.4784599     -1.2756927      323.80256      2824.8487      2379.2701      3.0110926    
      4270   2.135          20.770347     -5.7481161      4.4864654     -1.2616507      324.38137      2851.3382      2379.2701      3.0110926    
      4280   2.14           21.53949      -5.7385749      4.4899624     -1.2486125      324.63421      2884.3452      2379.2701      3.0110926    
      4290   2.145          22.30947      -5.7254973      4.4888782     -1.2366191      324.55582      2923.6318      2379.2701      3.0110926    
      4300   2.15           23.078352     -5.708988       4.4832942     -1.2256938      324.15209      2968.4023      2379.2701      3.0110926    
      4310   2.155          23.844406     -5.6893295      4.4734917     -1.2158378      323.44334      3017.4583      2379.2701      3.0110926    
      4320   2.16           24.615266     -5.6670754      4.4600387     -1.2070368      322.47066      3069.3195      2379.2701      3.0110926    
      4330   2.165          25.391529     -5.6431126      4.4438535     -1.199259       321.30044      3122.1659      2379.2701      3.0110926    
      4340   2.17           26.16776      -5.6187521      4.4262905     -1.1924616      320.03059      3173.509       2379.2701      3.0110926    
      4350   2.175          26.945764     -5.595762       4.4091622     -1.1865998      318.79218      3220.2611      2379.2701      3.0110926    
      4360   2.18           27.724284     -5.5763073      4.3946735     -1.1816339      317.74461      3258.877       2379.2701      3.0110926    
      4370   2.185          28.496029     -5.5627282      4.3851821     -1.1775462      317.05836      3285.9036      2379.2701      3.0110926    
      4380   2.19           29.264034     -5.5570895      4.3827381     -1.1743514      316.88166      3298.5951      2379.2701      3.0110926    
      4390   2.195          30.035312     -5.5605926      4.3884746     -1.172118       317.29642      3295.5105      2379.2701      3.0110926    
      4400   2.2            30.808799     -5.5730322      4.4020543     -1.1709779      318.27827      3277.0632      2379.2701      3.0110926    
      4410   2.205          31.580904     -5.5926322      4.4215044     -1.1711279      319.68455      3245.8461      2379.2701      3.0110926    
      4420   2.21           32.353804     -5.6164399      4.4436149     -1.1728251      321.28318      3205.8807      2379.2701      3.0110926    
      4430   2.215          33.129582     -5.6410959      4.4647233     -1.1763725      322.80937      3161.7845      2379.2701      3.0110926    
      4440   2.22           33.901568     -5.663655       4.4815669     -1.1820882      324.0272       3117.7529      2379.2701      3.0110926    
      4450   2.225          34.672964     -5.6821666      4.4918861     -1.1902805      324.7733       3076.7598      2379.2701      3.0110926    
      4460   2.23           35.442984     -5.6958742      4.4946542     -1.2012201      324.97344      3040.3246      2379.2701      3.0110926    
      4470   2.235          36.209503     -5.705113       4.4899875     -1.2151255      324.63603      3008.6902      2379.2701      3.0110926    
      4480   2.24           36.977694     -5.7109834      4.4788367     -1.2321467      323.8298       2981.1232      2379.2701      3.0110926    
      4490   2.245          37.744531     -5.7149374      4.4625694     -1.2523679      322.65364      2956.0929      2379.2701      3.0110926    
      4500   2.25           38.513136     -5.7183329      4.4425255     -1.2758074      321.20442      2932.0346      2379.2701      3.0110926    
      4510   2.255          39.278336     -5.7220653      4.4196507     -1.3024145      319.55052      2907.9241      2379.2701      3.0110926    
      4520   2.26           40.046199     -5.7264034      4.3943275     -1.3320759      317.7196       2883.4564      2379.2701      3.0110926    
      4530   2.265          40.814268     -5.7310334      4.3664278     -1.3646056      315.70239      2859.1748      2379.2701      3.0110926    
      4540   2.27           41.582258     -5.7352696      4.3355271     -1.3997425      313.4682       2835.9661      2379.2701      3.0110926    
      4550   2.275          42.349801     -5.7383239      4.3011752     -1.4371487      310.98448      2814.866       2379.2701      3.0110926    
      4560   2.28           43.118386     -5.7395079      4.2630958     -1.4764121      308.23126      2796.7052      2379.2701      3.0110926    
      4570   2.285          43.887283     -5.7383368      4.2212805     -1.5170563      305.20792      2782.5145      2379.2701      3.0110926    
      4580   2.29           44.655717     -5.7345454      4.1759854     -1.55856        301.93298      2773.0408      2379.2701      3.0110926    
      4590   2.295          45.423256     -5.7280516      4.1276763     -1.6003753      298.44013      2768.4602      2379.2701      3.0110926    
      4600   2.3            46.193668     -5.7189688      4.0770147     -1.6419542      294.77718      2768.7143      2379.2701      3.0110926    
      4610   2.305          46.963563     -5.7076494      4.0248794     -1.68277        291.00768      2773.3796      2379.2701      3.0110926    
      4620   2.31           47.730683     -5.6947217      3.9723772     -1.7223444      287.21166      2781.5363      2379.2701      3.0110926    
      4630   2.315          48.499657     -5.6810406      3.9207796     -1.760261       283.48104      2791.9303      2379.2701      3.0110926    
      4640   2.32           49.267031     -5.6675386      3.8713598     -1.7961788      279.90787      2803.1821      2379.2701      3.0110926    
      4650   2.325          50.031305     -5.6549749      3.8251409     -1.8298339      276.56615      2814.0705      2379.2701      3.0110926    
      4660   2.33           50.797192     -5.6437013      3.7826635     -1.8610377      273.49494      2823.7238      2379.2701      3.0110926    
      4670   2.335          51.561496     -5.6336087      3.7439464     -1.8896624      270.6956       2831.8196      2379.2701      3.0110926    
      4680   2.34           52.327317     -5.624347       3.7087219     -1.9156251      268.1488       2838.2336      2379.2701      3.0110926    
      4690   2.345          53.092182     -5.6157184      3.676834      -1.9388844      265.84323      2842.6344      2379.2701      3.0110926    
      4700   2.35           53.85853      -5.6080028      3.6485782     -1.9594246      263.80027      2844.1874      2379.2701      3.0110926    
      4710   2.355          54.624215     -5.6020736      3.6248185     -1.9772552      262.08239      2841.4581      2379.2701      3.0110926    
      4720   2.36           55.389266     -5.599243       3.6068363     -1.9924067      260.78224      2832.7625      2379.2701      3.0110926    
      4730   2.365          56.167651     -5.6008736      3.5959481     -2.0049255      259.995        2816.7212      2379.2701      3.0110926    
      4740   2.37           56.944818     -5.6078715      3.5929988     -2.0148727      259.78176      2792.8127      2379.2701      3.0110926    
      4750   2.375          57.708838     -5.6202605      3.597943      -2.0223175      260.13924      2761.4631      2379.2701      3.0110926    
      4760   2.38           58.471858     -5.6370224      3.6096891     -2.0273333      260.98851      2724.4778      2379.2701      3.0110926    
      4770   2.385          59.233121     -5.6562856      3.6262906     -2.029995       262.18883      2684.8861      2379.2701      3.0110926    
      4780   2.39           59.996421     -5.6757772      3.6454039     -2.0303733      263.57076      2646.1918      2379.2701      3.0110926    
      4790   2.395          60.75907      -5.6933264      3.6647927     -2.0285337      264.97262      2611.8748      2379.2701      3.0110926    
      4800   2.4            61.521006     -5.7071777      3.6826446     -2.0245331      266.26335      2585.0315      2379.2701      3.0110926    
      4810   2.405          62.2838       -5.7160973      3.6976795     -2.0184178      267.35041      2567.8558      2379.2701      3.0110926    
      4820   2.41           63.04894      -5.7193605      3.709141      -2.0102195      268.1791       2561.7281      2379.2701      3.0110926    
      4830   2.415          63.810895     -5.7167562      3.7168014     -1.9999549      268.73296      2566.9465      2379.2701      3.0110926    
      4840   2.42           64.572595     -5.7086857      3.7210621     -1.9876236      269.04102      2582.641       2379.2701      3.0110926    
      4850   2.425          65.332537     -5.6963375      3.7231249     -1.9732126      269.19016      2606.5684      2379.2701      3.0110926    
      4860   2.43           66.095088     -5.6818046      3.7251112     -1.9566934      269.33378      2635.4057      2379.2701      3.0110926    
      4870   2.435          66.855405     -5.6679537      3.7299246     -1.9380291      269.6818       2665.1719      2379.2701      3.0110926    
      4880   2.44           67.616851     -5.6577875      3.7406061     -1.9171814      270.45409      2691.9806      2379.2701      3.0110926    
      4890   2.445          68.379489     -5.6533575      3.7592332     -1.8941243      271.80088      2713.1978      2379.2701      3.0110926    
      4900   2.45           69.143541     -5.6547943      3.7859349     -1.8688594      273.73147      2728.2654      2379.2701      3.0110926    
      4910   2.455          69.906469     -5.6602339      3.8187982     -1.8414357      276.10756      2738.9075      2379.2701      3.0110926    
      4920   2.46           70.667666     -5.6668075      3.8548433     -1.8119642      278.7137       2748.1181      2379.2701      3.0110926    
      4930   2.465          71.431082     -5.672022       3.8914031     -1.7806189      281.35705      2758.8015      2379.2701      3.0110926    
      4940   2.47           72.193246     -5.6746804      3.9270608     -1.7476195      283.93518      2772.5938      2379.2701      3.0110926    
      4950   2.475          72.954721     -5.67498        3.9617553     -1.7132247      286.44367      2789.5353      2379.2701      3.0110926    
      4960   2.48           73.716989     -5.6740065      3.9962939     -1.6777126      288.94089      2808.3969      2379.2701      3.0110926    
      4970   2.485          74.478899     -5.6730735      4.0316987     -1.6413748      291.50073      2827.5481      2379.2701      3.0110926    
      4980   2.49           75.246802     -5.6732179      4.0686977     -1.6045203      294.17584      2845.7275      2379.2701      3.0110926    
      4990   2.495          76.010319     -5.6748934      4.1074209     -1.5674725      296.97561      2862.2542      2379.2701      3.0110926    
      5000   2.5            76.768669     -5.6778679      4.1472981     -1.5305698      299.85882      2877.2653      2379.2701      3.0110926    
[...]
     98740   49.37          56.458278     -5.6216401      3.5111619     -2.1104782      253.86477      2666.5859      2379.2701      3.0110926    
     98750   49.375         57.216985     -5.6056145      3.5026132     -2.1030012      253.24668      2700.3225      2379.2701      3.0110926    
     98760   49.38          57.975639     -5.5950157      3.5020231     -2.0929926      253.20402      2725.456       2379.2701      3.0110926    
     98770   49.385         58.733732     -5.5905696      3.5101009     -2.0804687      253.78806      2740.9532      2379.2701      3.0110926    
     98780   49.39          59.490277     -5.5922274      3.5267589     -2.0654685      254.99247      2746.8204      2379.2701      3.0110926    
     98790   49.395         60.247912     -5.5992147      3.5511638     -2.048051       256.757        2744.0013      2379.2701      3.0110926    
     98800   49.4           61.004735     -5.6103418      3.5820306     -2.0283112      258.98874      2734.079       2379.2701      3.0110926    
     98810   49.405         61.763715     -5.6243664      3.6179845     -2.0063819      261.58828      2718.9008      2379.2701      3.0110926    
     98820   49.41          62.53413      -5.6402412      3.6578054     -1.9824358      264.46742      2700.2878      2379.2701      3.0110926    
     98830   49.415         63.307184     -5.6571914      3.7004992     -1.9566923      267.55427      2679.7026      2379.2701      3.0110926    
     98840   49.42          64.079647     -5.6746428      3.7452316     -1.9294112      270.78853      2658.3515      2379.2701      3.0110926    
     98850   49.425         64.854511     -5.6921161      3.7912205     -1.9008956      274.11363      2637.1959      2379.2701      3.0110926    
     98860   49.43          65.627537     -5.7091383      3.8376563     -1.8714819      277.47104      2617.0575      2379.2701      3.0110926    
     98870   49.435         66.398242     -5.7252252      3.8836891     -1.8415361      280.79931      2598.696       2379.2701      3.0110926    
     98880   49.44          67.17001      -5.7399139      3.9284722     -1.8114417      284.03723      2582.7999      2379.2701      3.0110926    
     98890   49.445         67.945055     -5.7528124      3.9712277     -1.7815847      287.12854      2569.7074      2379.2701      3.0110926    
     98900   49.45          68.716795     -5.7636572      4.0113192     -1.752338       290.02725      2559.641       2379.2701      3.0110926    
     98910   49.455         69.488393     -5.77238        4.0483321     -1.7240479      292.70336      2552.6127      2379.2701      3.0110926    
     98920   49.46          70.260428     -5.7791209      4.0821054     -1.6970154      295.14525      2548.365       2379.2701      3.0110926    
     98930   49.465         71.03302      -5.7842159      4.1127253     -1.6714906      297.35913      2546.3858      2379.2701      3.0110926    
     98940   49.47          71.805553     -5.7881418      4.1404776     -1.6476642      299.36569      2546.1375      2379.2701      3.0110926    
     98950   49.475         72.576987     -5.7914465      4.1657778     -1.6256687      301.19495      2546.6044      2379.2701      3.0110926    
     98960   49.48          73.350086     -5.7946583      4.1890778     -1.6055805      302.87959      2546.7606      2379.2701      3.0110926    
     98970   49.485         74.127004     -5.7981956      4.2107694     -1.5874262      304.44794      2546.0749      2379.2701      3.0110926    
     98980   49.49          74.900824     -5.8023193      4.2311237     -1.5711956      305.9196       2544.3012      2379.2701      3.0110926    
     98990   49.495         75.675869     -5.8070908      4.2502438     -1.5568469      307.30203      2541.4232      2379.2701      3.0110926    
     99000   49.5           76.452779     -5.8123592      4.2680434     -1.5443158      308.58898      2537.6962      2379.2701      3.0110926    
     99010   49.505         77.23139      -5.8177917      4.2842669     -1.5335248      309.76197      2533.7552      2379.2701      3.0110926    
     99020   49.51          78.007196     -5.8229108      4.2985228     -1.524388       310.79271      2530.5626      2379.2701      3.0110926    
     99030   49.515         78.780714     -5.8271605      4.3103482     -1.5168123      311.64771      2529.1198      2379.2701      3.0110926    
     99040   49.52          79.551832     -5.8299776      4.3192746     -1.510703       312.29311      2530.5227      2379.2701      3.0110926    
     99050   49.525         80.32274      -5.8308529      4.3248915     -1.5059614      312.69922      2535.6108      2379.2701      3.0110926    
     99060   49.53          81.094672     -5.8293895      4.3269026     -1.5024869      312.84463      2544.9361      2379.2701      3.0110926    
     99070   49.535         81.865805     -5.8253376      4.325162      -1.5001756      312.71878      2558.6828      2379.2701      3.0110926    
     99080   49.54          82.637729     -5.8186242      4.3197054     -1.4989188      312.32426      2576.9602      2379.2701      3.0110926    
     99090   49.545         83.410511     -5.8093668      4.31076       -1.4986068      311.67748      2599.5274      2379.2701      3.0110926    
     99100   49.55          84.18361      -5.7978551      4.2987312     -1.499124       310.80777      2625.7668      2379.2701      3.0110926    
     99110   49.555         84.955682     -5.7845255      4.2841688     -1.5003567      309.75488      2654.7712      2379.2701      3.0110926    
     99120   49.56          85.72972      -5.7699259      4.2677351     -1.5021908      308.56669      2685.4581      2379.2701      3.0110926    
     99130   49.565         86.506827     -5.7547022      4.2501875     -1.5045147      307.29796      2716.5033      2379.2701      3.0110926    
     99140   49.57          87.281865     -5.7396148      4.2323941     -1.5072207      306.01145      2746.3129      2379.2701      3.0110926    
     99150   49.575         88.057334     -5.7255878      4.2153748     -1.510213       304.78092      2773.2282      2379.2701      3.0110926    
     99160   49.58          88.831912     -5.7136986      4.200294      -1.5134047      303.69055      2795.6926      2379.2701      3.0110926    
     99170   49.585         89.60779      -5.705079       4.1883517     -1.5167273      302.82709      2811.9955      2379.2701      3.0110926    
     99180   49.59          90.380438     -5.7006857      4.1805552     -1.5201306      302.26338      2820.7922      2379.2701      3.0110926    
     99190   49.595         91.153016     -5.7010065      4.177417      -1.5235895      302.03649      2821.4902      2379.2701      3.0110926    
     99200   49.6           91.9281       -5.705845       4.1787423     -1.5271027      302.13231      2814.402       2379.2701      3.0110926    
     99210   49.605         92.704662     -5.7143308      4.183642      -1.5306888      302.48657      2801.0921      2379.2701      3.0110926    
     99220   49.61          93.479368     -5.7251714      4.1907876     -1.5343838      303.00322      2783.5038      2379.2701      3.0110926    
     99230   49.615         94.253915     -5.7369969      4.198764      -1.5382328      303.57993      2763.7459      2379.2701      3.0110926    
     99240   49.62          95.030983     -5.7486197      4.2063346     -1.5422851      304.12729      2743.8352      2379.2701      3.0110926    
     99250   49.625         95.804338     -5.7591308      4.2125426     -1.5465882      304.57615      2725.5012      2379.2701      3.0110926    
     99260   49.63          96.576425     -5.7678725      4.2166932     -1.5511793      304.87625      2710.0811      2379.2701      3.0110926    
     99270   49.635         97.349253     -5.7743871      4.2182999     -1.5560872      304.99242      2698.6212      2379.2701      3.0110926    
     99280   49.64          98.120965     -5.7783658      4.2170367     -1.5613291      304.90108      2691.898       2379.2701      3.0110926    
     99290   49.645         98.893093     -5.7796267      4.2127223     -1.5669044      304.58914      2690.3362      2379.2701      3.0110926    
     99300   49.65          99.667066     -5.7781528      4.2053509     -1.572802       304.05617      2694.0857      2379.2701      3.0110926    
     99310   49.655         100.44159     -5.7740915      4.1951005     -1.5789911      303.31504      2702.988       2379.2701      3.0110926    
     99320   49.66          101.21476     -5.7677455      4.1823134     -1.5854322      302.39051      2716.605       2379.2701      3.0110926    
     99330   49.665         101.98651     -5.7594934      4.1674223     -1.5920712      301.31385      2734.349       2379.2701      3.0110926    
     99340   49.67          102.75509     -5.7496797      4.1508328     -1.5988469      300.11439      2755.5443      2379.2701      3.0110926    
     99350   49.675         103.52482     -5.7385163      4.1328267     -1.6056897      298.81251      2779.7946      2379.2701      3.0110926    
     99360   49.68          104.29586     -5.7260616      4.1135382     -1.6125234      297.41791      2806.7336      2379.2701      3.0110926    
     99370   49.685         105.06708     -5.7122796      4.0930131     -1.6192665      295.9339       2835.9508      2379.2701      3.0110926    
     99380   49.69          105.83967     -5.6971384      4.0713085     -1.6258299      294.36461      2866.9167      2379.2701      3.0110926    
     99390   49.695         106.6131      -5.6807178      4.0485975     -1.6321203      292.72255      2899.1009      2379.2701      3.0110926    
     99400   49.7           107.38594     -5.6632806      4.0252423     -1.6380383      291.03392      2931.7295      2379.2701      3.0110926    
     99410   49.705         108.15559     -5.645293       4.0018141     -1.6434789      289.34001      2963.7522      2379.2701      3.0110926    
     99420   49.71          108.92546     -5.6274334      3.9790964     -1.648337       287.69747      2993.8228      2379.2701      3.0110926    
     99430   49.715         109.69842     -5.6106459      3.95814       -1.6525058      286.18228      3020.2043      2379.2701      3.0110926    
     99440   49.72          110.47453     -5.5962384      3.9403553     -1.6558831      284.8964       3040.724       2379.2701      3.0110926    
     99450   49.725         111.24934     -5.5859295      3.9275547     -1.6583748      283.97089      3052.7547      2379.2701      3.0110926    
     99460   49.73          112.02494     -5.5816701      3.9217688     -1.6599013      283.55256      3053.6403      2379.2701      3.0110926    
     99470   49.735         112.80239     -5.5851414      3.9247384     -1.660403       283.76727      3041.204       2379.2701      3.0110926    
     99480   49.74          113.57914     -5.5970843      3.9372396     -1.6598447      284.67113      3014.6569      2379.2701      3.0110926    
     99490   49.745         114.35184     -5.6168635      3.9586434     -1.6582201      286.21867      2974.8074      2379.2701      3.0110926    
     99500   49.75          115.12351     -5.6426072      3.9870556     -1.6555516      288.27294      2924.0718      2379.2701      3.0110926    
     99510   49.755         115.89702     -5.6718247      4.0199375     -1.6518872      290.65037      2865.8085      2379.2701      3.0110926    
     99520   49.76          116.67046     -5.7020946      4.0547996     -1.647295       293.17098      2803.6079      2379.2701      3.0110926    
     99530   49.765         117.44363     -5.7314797      4.0896259     -1.6418539      295.689        2740.7425      2379.2701      3.0110926    
     99540   49.77          118.21517     -5.7586293      4.122976      -1.6356533      298.10028      2679.7894      2379.2701      3.0110926    
     99550   49.775         118.9855      -5.782682       4.1539013     -1.6287807      300.33625      2622.8426      2379.2701      3.0110926    
     99560   49.78          119.7573      -5.803163       4.1818411     -1.6213218      302.35636      2571.4365      2379.2701      3.0110926    
     99570   49.785         120.53226     -5.8198953      4.206539      -1.6133562      304.14208      2526.6811      2379.2701      3.0110926    
     99580   49.79          121.3026      -5.8329331      4.2279773     -1.6049559      305.69211      2489.4941      2379.2701      3.0110926    
     99590   49.795         122.0776      -5.8425204      4.2463332     -1.5961873      307.01928      2460.4019      2379.2701      3.0110926    
     99600   49.8           122.85124     -5.8490445      4.2619364     -1.5871081      308.14743      2439.3785      2379.2701      3.0110926    
     99610   49.805         123.62455     -5.8529831      4.275213      -1.5777701      309.10736      2426.1927      2379.2701      3.0110926    
     99620   49.81          124.39863     -5.854822       4.2866006     -1.5682214      309.9307       2420.3344      2379.2701      3.0110926    
     99630   49.815         125.17237     -5.8549587      4.2964501     -1.5585086      310.64285      2421.2349      2379.2701      3.0110926    
     99640   49.82          125.94407     -5.8536034      4.304924      -1.5486794      311.25553      2428.1792      2379.2701      3.0110926    
     99650   49.825         126.71163     -5.8507168      4.3119368     -1.5387801      311.76257      2440.6649      2379.2701      3.0110926    
     99660   49.83          127.48343     -5.8460577      4.317197      -1.5288606      312.14289      2458.7354      2379.2701      3.0110926    
     99670   49.835         128.25568     -5.8392541      4.3202843     -1.5189698      312.36611      2482.5612      2379.2701      3.0110926    
     99680   49.84          129.02669     -5.8299376      4.3207864     -1.5091512      312.40241      2511.9297      2379.2701      3.0110926    
     99690   49.845         129.79805     -5.8178608      4.3184175     -1.4994434      312.23113      2546.2484      2379.2701      3.0110926    
     99700   49.85          130.56836     -5.8030016      4.3131311     -1.4898705      311.84892      2585.2516      2379.2701      3.0110926    
     99710   49.855         131.33961     -5.7856497      4.3052045     -1.4804451      311.27581      2627.8726      2379.2701      3.0110926    
     99720   49.86          132.10984     -5.7664564      4.2952914     -1.4711651      310.55907      2672.5103      2379.2701      3.0110926    
     99730   49.865         132.91014     -5.7464302      4.284416      -1.4620142      309.77276      2717.268       2379.2701      3.0110926    
     99740   49.87          133.70135     -5.7268649      4.2738999     -1.452965       309.01241      2760.0595      2379.2701      3.0110926    
     99750   49.875         134.49513     -5.7091528      4.2651618     -1.443991       308.38063      2798.7806      2379.2701      3.0110926    
     99760   49.88          135.29407     -5.6944618      4.2593957     -1.4350661      307.96373      2831.7069      2379.2701      3.0110926    
     99770   49.885         136.11782     -5.6833821      4.2572045     -1.4261776      307.8053       2857.9655      2379.2701      3.0110926    
     99780   49.89          136.92629     -5.6757049      4.2583764     -1.4173285      307.89003      2877.5704      2379.2701      3.0110926    
     99790   49.895         137.73549     -5.6705678      4.2620277     -1.4085401      308.15403      2891.2603      2379.2701      3.0110926    
     99800   49.9           138.53472     -5.6669909      4.2671434     -1.3998475      308.5239       2900.1262      2379.2701      3.0110926    
     99810   49.905         139.33343     -5.6646095      4.27331       -1.3912995      308.96977      2904.6663      2379.2701      3.0110926    
     99820   49.91          140.13228     -5.6641763      4.2812279     -1.3829484      309.54225      2904.1836      2379.2701      3.0110926    
     99830   49.915         140.92275     -5.6674063      4.2925464     -1.3748599      310.3606       2897.4708      2379.2701      3.0110926    
     99840   49.92          141.71882     -5.6759802      4.3088656     -1.3671146      311.54051      2884.0743      2379.2701      3.0110926    
     99850   49.925         142.50936     -5.6902794      4.3304582     -1.3598212      313.10171      2864.822       2379.2701      3.0110926    
     99860   49.93          143.3032      -5.708678       4.3555552     -1.3531228      314.91628      2842.7096      2379.2701      3.0110926    
     99870   49.935         144.10099     -5.7278431      4.3806502     -1.3471929      316.7307       2822.49        2379.2701      3.0110926    
     99880   49.94          144.91018     -5.7437839      4.4015668     -1.3422171      318.24301      2809.6202      2379.2701      3.0110926    
     99890   49.945         145.71367     -5.7529068      4.4145356     -1.3383712      319.18068      2808.7917      2379.2701      3.0110926    
     99900   49.95          146.51523     -5.7525751      4.4167847     -1.3357903      319.3433       2823.6359      2379.2701      3.0110926    
     99910   49.955         147.31795     -5.7412791      4.4067297     -1.3345494      318.61631      2856.2391      2379.2701      3.0110926    
     99920   49.96          148.12349     -5.7186562      4.3840104     -1.3346459      316.97365      2906.4131      2379.2701      3.0110926    
     99930   49.965         148.93375     -5.6856623      4.3496606     -1.3360017      314.49008      2971.8418      2379.2701      3.0110926    
     99940   49.97          149.73582     -5.6449422      4.3064796     -1.3384626      311.368        3047.6556      2379.2701      3.0110926    
     99950   49.975         150.53557     -5.6012102      4.2593898     -1.3418204      307.96331      3126.4021      2379.2701      3.0110926    
     99960   49.98          151.33492     -5.5610406      4.2151897     -1.3458509      304.76754      3198.5855      2379.2701      3.0110926    
     99970   49.985         152.13689     -5.5314925      4.1811417     -1.3503509      302.30579      3254.6323      2379.2701      3.0110926    
     99980   49.99          152.93538     -5.5177254      4.1625522     -1.3551732      300.96173      3287.8837      2379.2701      3.0110926    
     99990   49.995         153.73718     -5.5208247      4.1605713     -1.3602534      300.81851      3296.5738      2379.2701      3.0110926    
    100000   50             154.53618     -5.5373847      4.1717789     -1.3656058      301.62884      3284.5532      2379.2701      3.0110926    
Loop time of 154.536 on 1 procs for 2000 steps with 108 atoms

Performance: 0.559 ns/day, 42.927 hours/ns, 12.942 timesteps/s, 1.398 katom-step/s
100.1% CPU use with 1 MPI tasks x 1 OpenMP threads

MPI task timing breakdown:
Section |  min time  |  avg time  |  max time  |%varavg| %total
---------------------------------------------------------------
Pair    | 154.47     | 154.47     | 154.47     |   0.0 | 99.95
Neigh   | 0.011209   | 0.011209   | 0.011209   |   0.0 |  0.01
Comm    | 0.020794   | 0.020794   | 0.020794   |   0.0 |  0.01
Output  | 0.030143   | 0.030143   | 0.030143   |   0.0 |  0.02
Modify  | 0.0055995  | 0.0055995  | 0.0055995  |   0.0 |  0.00
Other   |            | 0.003114   |            |       |  0.00

Nlocal:            108 ave         108 max         108 min
Histogram: 1 0 0 0 0 0 0 0 0 0
Nghost:           3078 ave        3078 max        3078 min
Histogram: 1 0 0 0 0 0 0 0 0 0
Neighs:              0 ave           0 max           0 min
Histogram: 1 0 0 0 0 0 0 0 0 0
FullNghs:        56292 ave       56292 max       56292 min
Histogram: 1 0 0 0 0 0 0 0 0 0

Total # of neighbors = 56292
Ave neighs/atom = 521.22222
Neighbor list builds = 9
Dangerous builds = 0
undump        myDump
next i
jump SELF chunk_loop
Total wall time: 2:08:15
